LAMMPS Description

108  atoms
 72  bonds
 36  angles

 2  atom types
 1  bond types
 1  angle types


0.0 25.263 xlo xhi
0.0 25.263 ylo yhi
0.0 25.263 zlo zhi

Masses

  1 12.0107
  2 15.9994

Bond Coeffs

 1    2.196    0.45106005 -0.67297933 0.5857145

Angle Coeffs

  1    0.0861  180.000000

Atoms

1 1 1 0.651200 47.5965319219 2.1267355761 14.8526615310
2 1 2 -0.325600 46.3483678160 3.8129759924 14.1111707939
3 1 2 -0.325600 49.0595578882 0.6817564943 15.5335676485
4 2 1 0.651200 31.2955653911 34.3967949356 4.5777292581
5 2 2 -0.325600 31.3271238174 35.1967160045 2.5602009548
6 2 2 -0.325600 31.5778904742 33.5964959215 6.5802909305
7 3 1 0.651200 33.8347903859 16.3944701795 7.4343148584
8 3 2 -0.325600 33.8767423059 17.4452523916 9.3036508389
9 3 2 -0.325600 34.0150702582 15.2551920930 5.5358393010
10 4 1 0.651200 29.4610192685 4.2361990554 -0.0510197708
11 4 2 -0.325600 31.1617727814 4.3475795133 1.4416437152
12 4 2 -0.325600 27.6725824634 4.0754022594 -1.3366637598
13 5 1 0.651200 44.9140656868 24.4855593528 21.7326063332
14 5 2 -0.325600 44.3278726427 22.5807154183 20.9202130719
15 5 2 -0.325600 45.2751923494 26.5965724075 22.2360293730
16 6 1 0.651200 52.4393330636 23.8364384287 21.1891210995
17 6 2 -0.325600 54.6565487266 23.8434304154 21.3314174768
18 6 2 -0.325600 50.2330778121 24.0140726845 20.9797394448
19 7 1 0.651200 39.0190650385 24.9428730751 16.3892167409
20 7 2 -0.325600 41.1382039155 25.3121255601 16.0007646385
21 7 2 -0.325600 36.8742258861 24.5375268212 16.6770598243
22 8 1 0.651200 37.0864421299 11.4500584640 0.1150431250
23 8 2 -0.325600 38.2491906149 10.0330662261 1.4094805766
24 8 2 -0.325600 36.0023062518 12.8735135653 -1.1671175318
25 9 1 0.651200 50.7164697550 37.8232463463 30.1864851281
26 9 2 -0.325600 50.1629689729 39.0761347674 31.9042461761
27 9 2 -0.325600 51.6108771302 36.4108650401 28.7618206021
28 10 1 0.651200 28.7614426569 10.9989430434 -2.8264066741
29 10 2 -0.325600 30.7500014587 10.0431573636 -3.4348606919
30 10 2 -0.325600 26.7915921437 11.8680469857 -2.2652525011
31 11 1 0.651200 16.5321556250 6.2501746736 -3.6979294659
32 11 2 -0.325600 16.7167629702 6.8851226518 -5.7606978126
33 11 2 -0.325600 16.1737690653 5.9393714178 -1.5286731622
34 12 1 0.651200 29.8070281221 -9.1505452283 -23.5172636861
35 12 2 -0.325600 29.5500253690 -8.2372405918 -21.5587515297
36 12 2 -0.325600 30.1379191666 -10.0731284200 -25.4805001578
37 13 1 0.651200 15.9306935938 17.3914140942 16.7952810907
38 13 2 -0.325600 15.2608234768 19.4501951189 17.2609285053
39 13 2 -0.325600 16.4458896274 15.3146428769 16.2736788856
40 14 1 0.651200 45.2166108395 17.1527227873 9.6040228066
41 14 2 -0.325600 45.1916664546 16.9167526861 7.4490736194
42 14 2 -0.325600 45.1124869300 17.2357384560 11.7979003519
43 15 1 0.651200 40.2504105818 25.0721303421 -15.3724307018
44 15 2 -0.325600 38.1934436942 24.6044231261 -14.8498647363
45 15 2 -0.325600 42.2393473288 25.5997418764 -16.1023941095
46 16 1 0.651200 51.3138121833 -3.9220509843 4.9588303258
47 16 2 -0.325600 52.6766826650 -2.1431950907 4.8329934631
48 16 2 -0.325600 50.0803879412 -5.7552176069 5.1094792925
49 17 1 0.651200 53.2500255714 38.0800601267 15.6636186005
50 17 2 -0.325600 53.8987685503 39.7721208994 14.3928533702
51 17 2 -0.325600 52.7399884902 36.3324414059 16.9638068666
52 18 1 0.651200 22.5478341837 30.9066597545 4.0763093280
53 18 2 -0.325600 23.6060808140 30.4595505532 2.1747913115
54 18 2 -0.325600 21.7781487328 31.3819258750 6.0744490412
55 19 1 0.651200 23.1926087377 31.6937306857 -3.7345145637
56 19 2 -0.325600 23.7141731484 30.1519031400 -5.3277048655
57 19 2 -0.325600 22.5329053473 33.2308339162 -2.3272922098
58 20 1 0.651200 11.9580924356 13.8588734589 -13.6068784801
59 20 2 -0.325600 13.5406435794 15.1998042202 -14.2859704605
60 20 2 -0.325600 10.4407368432 12.4702460101 -12.7654968200
61 21 1 0.651200 35.6079204094 -2.6414591782 23.2889847701
62 21 2 -0.325600 34.9450044846 -4.5838897653 22.5895971311
63 21 2 -0.325600 36.0404787195 -0.5816614809 23.9596485721
64 22 1 0.651200 27.9123887087 33.5758979067 -14.1746466944
65 22 2 -0.325600 26.5151252115 33.8608686064 -15.8326357051
66 22 2 -0.325600 29.1348525392 32.9983976027 -12.3956207254
67 23 1 0.651200 55.7556134412 26.7258296745 14.5229799112
68 23 2 -0.325600 54.7447989367 26.6271859708 12.6229169838
69 23 2 -0.325600 56.7411056156 27.0181703061 16.4490076755
70 24 1 0.651200 26.3955055478 19.8302190427 16.1201386379
71 24 2 -0.325600 25.7044327037 20.4834973643 14.1093755541
72 24 2 -0.325600 26.9609116045 19.3901018281 18.1883493959
73 25 1 0.651200 43.4221269108 8.2145638783 -14.0985852179
74 25 2 -0.325600 41.4148598203 7.3178321400 -13.7493260354
75 25 2 -0.325600 45.3749698888 9.2627760629 -14.2362706634
76 26 1 0.651200 84.7124537794 -0.8497436982 5.6045308456
77 26 2 -0.325600 84.1283394340 -3.0101069507 5.7106389676
78 26 2 -0.325600 85.3868970336 1.2249714971 5.4196400415
79 27 1 0.651200 43.3193258095 10.2161806877 4.8173843253
80 27 2 -0.325600 45.0459685704 10.6297661475 3.4777574750
81 27 2 -0.325600 41.6956731226 9.8503297098 6.3032192860
82 28 1 0.651200 38.5587277543 5.9309054447 -20.0361991904
83 28 2 -0.325600 37.2003926153 7.3251264829 -19.1330990750
84 28 2 -0.325600 39.8291906284 4.4534608681 -21.0271715706
85 29 1 0.651200 36.1355319436 5.3526870449 -12.3688244090
86 29 2 -0.325600 37.2984694012 3.5533087255 -11.8829569248
87 29 2 -0.325600 34.9850666784 7.1110583074 -12.9527875762
88 30 1 0.651200 47.9701307769 -7.8436484344 23.8791462391
89 30 2 -0.325600 46.3372184319 -8.6951401293 22.7073270687
90 30 2 -0.325600 49.6967735377 -7.0157216243 25.0643824650
91 31 1 0.651200 69.2465572234 23.9027678157 4.2401296858
92 31 2 -0.325600 67.9689133900 22.2683436898 4.9631389014
93 31 2 -0.325600 70.5207995498 25.6018205751 3.7331917554
94 32 1 0.651200 60.2151781247 4.4716967252 -4.9061825560
95 32 2 -0.325600 62.2381299420 4.0969262400 -5.7262670026
96 32 2 -0.325600 58.1576443193 5.0617259133 -4.3743758297
97 33 1 0.651200 40.0247772824 16.8708323412 3.7022002469
98 33 2 -0.325600 38.7078271456 18.3376944516 4.6191709520
99 33 2 -0.325600 41.2810672106 15.4159699917 2.6354120546
100 34 1 0.651200 34.2424043111 -10.4522641725 -6.2171611582
101 34 2 -0.325600 32.1487767367 -10.3286760839 -5.6021497907
102 34 2 -0.325600 36.3683462023 -10.4904744348 -6.9297579829
103 35 1 0.651200 45.2997587890 11.1057881585 18.9354337223
104 35 2 -0.325600 46.2342283581 10.4786447492 17.0770203588
105 35 2 -0.325600 44.1451361264 11.6543945500 20.7435236792
106 36 1 0.651200 34.1573666355 -4.7768874945 -11.8074056743
107 36 2 -0.325600 32.0985100218 -4.2599907074 -11.2233858153
108 36 2 -0.325600 36.2521280456 -5.0531087622 -12.3576183330

Bonds

1 1 1 2
2 1 1 3
3 1 4 5
4 1 4 6
5 1 7 8
6 1 7 9
7 1 10 11
8 1 10 12
9 1 13 14
10 1 13 15
11 1 16 17
12 1 16 18
13 1 19 20
14 1 19 21
15 1 22 23
16 1 22 24
17 1 25 26
18 1 25 27
19 1 28 29
20 1 28 30
21 1 31 32
22 1 31 33
23 1 34 35
24 1 34 36
25 1 37 38
26 1 37 39
27 1 40 41
28 1 40 42
29 1 43 44
30 1 43 45
31 1 46 47
32 1 46 48
33 1 49 50
34 1 49 51
35 1 52 53
36 1 52 54
37 1 55 56
38 1 55 57
39 1 58 59
40 1 58 60
41 1 61 62
42 1 61 63
43 1 64 65
44 1 64 66
45 1 67 68
46 1 67 69
47 1 70 71
48 1 70 72
49 1 73 74
50 1 73 75
51 1 76 77
52 1 76 78
53 1 79 80
54 1 79 81
55 1 82 83
56 1 82 84
57 1 85 86
58 1 85 87
59 1 88 89
60 1 88 90
61 1 91 92
62 1 91 93
63 1 94 95
64 1 94 96
65 1 97 98
66 1 97 99
67 1 100 101
68 1 100 102
69 1 103 104
70 1 103 105
71 1 106 107
72 1 106 108

Angles

1 1 2 1 3
2 1 5 4 6
3 1 8 7 9
4 1 11 10 12
5 1 14 13 15
6 1 17 16 18
7 1 20 19 21
8 1 23 22 24
9 1 26 25 27
10 1 29 28 30
11 1 32 31 33
12 1 35 34 36
13 1 38 37 39
14 1 41 40 42
15 1 44 43 45
16 1 47 46 48
17 1 50 49 51
18 1 53 52 54
19 1 56 55 57
20 1 59 58 60
21 1 62 61 63
22 1 65 64 66
23 1 68 67 69
24 1 71 70 72
25 1 74 73 75
26 1 77 76 78
27 1 80 79 81
28 1 83 82 84
29 1 86 85 87
30 1 89 88 90
31 1 92 91 93
32 1 95 94 96
33 1 98 97 99
34 1 101 100 102
35 1 104 103 105
36 1 107 106 108

