
  Memory set to 953.674 MiB by Python driver.
  Threads set to 1 by Python driver.

         ----------------------------------------------------------
                                   FINDIF
                     R. A. King and Jonathon Misiewicz
         ----------------------------------------------------------

  Using finite-differences of gradients to determine vibrational frequencies and 
  normal modes. Resulting frequencies are only valid at stationary points.
    Generating geometries for use with 3-point formula.
    Displacement size will be 5.00e-03.
    Number of atoms is 3.
    Number of irreps is 4.
    Number of SALCs is 6.
    Translations projected? 1. Rotations projected? 0.
    Index of SALCs per irrep:
      1 :  0  1 
      2 : 
      3 :  2  3 
      4 :  4  5 
    Number of SALCs per irrep:
      Irrep 1: 2
      Irrep 2: 0
      Irrep 3: 2
      Irrep 4: 2
    Number of geometries (including reference) is 9.
    Number of displacements per irrep:
      Irrep 1: 4
      Irrep 2: 0
      Irrep 3: 2
      Irrep 4: 2
 9 displacements needed ...

  //>>>>>>>>>>>>>>>>>>>>>>>>>>>>>>>>>>>//
  //    FiniteDifference Computations  //
  //<<<<<<<<<<<<<<<<<<<<<<<<<<<<<<<<<<<//


    -----------------------------------------------------------------------
          Psi4: An Open-Source Ab Initio Electronic Structure Package
                               Psi4 1.10 release

                         Git: Rev {} zzzzzzz 


    D. G. A. Smith, L. A. Burns, A. C. Simmonett, R. M. Parrish,
    M. C. Schieber, R. Galvelis, P. Kraus, H. Kruse, R. Di Remigio,
    A. Alenaizan, A. M. James, S. Lehtola, J. P. Misiewicz, M. Scheurer,
    R. A. Shaw, J. B. Schriber, Y. Xie, Z. L. Glick, D. A. Sirianni,
    J. S. O'Brien, J. M. Waldrop, A. Kumar, E. G. Hohenstein,
    B. P. Pritchard, B. R. Brooks, H. F. Schaefer III, A. Yu. Sokolov,
    K. Patkowski, A. E. DePrince III, U. Bozkaya, R. A. King,
    F. A. Evangelista, J. M. Turney, T. D. Crawford, C. D. Sherrill,
    J. Chem. Phys. 152(18) 184108 (2020). https://doi.org/10.1063/5.0006002

                            Additional Code Authors
    E. T. Seidl, C. L. Janssen, E. F. Valeev, M. L. Leininger,
    J. F. Gonthier, R. M. Richard, H. R. McAlexander, M. Saitow, X. Wang,
    P. Verma, M. H. Lechner, A. Jiang, S. Behnle, A. G. Heide,
    M. F. Herbst, D. L. Poole, T. Győri, E. C. Mitchell, J. P. Pederson,
    and A. M. Wallace

             Previous Authors, Complete List of Code Contributors,
                       and Citations for Specific Modules
    https://github.com/psi4/psi4/blob/master/codemeta.json
    https://github.com/psi4/psi4/graphs/contributors
    https://psicode.org/psi4manual/master/introduction.html#citing-psifour

    -----------------------------------------------------------------------


    Psi4 started on: Monday, 01 December 2025 11:02AM

    Process ID: 36257
    Host:       wifi-roaming-128-4-180-132.wifi.udel.edu
    PSIDATADIR: /Users/taoli/miniforge3/envs/mxl/share/psi4
    Memory:     953.7 MiB
    Threads:    1
    Addons:     a̶d̶c̶c̶, a̶m̶b̶i̶t̶, b̶s̶e̶, c̶c̶t̶3̶, c̶f̶o̶u̶r̶, c̶h̶e̶m̶p̶s̶2̶, c̶p̶p̶e̶, d̶d̶x̶,
                d̶f̶t̶d̶3̶, d̶f̶t̶d̶4̶, dkh, ecpint, einsums, f̶o̶r̶t̶e̶, g̶a̶u̶x̶c̶, g̶c̶p̶,
                g̶d̶m̶a̶, g̶e̶o̶m̶e̶t̶r̶i̶c̶, g̶p̶u̶_̶d̶f̶c̶c̶, i̶n̶t̶e̶g̶r̶a̶t̶o̶r̶x̶x̶,
                i̶p̶i̶, l̶i̶b̶e̶f̶p̶, m̶d̶i̶, m̶p̶2̶d̶, m̶r̶c̶c̶, ooo,
                o̶p̶e̶n̶f̶e̶r̶m̶i̶o̶n̶p̶s̶i̶4̶, pcmsolver, p̶s̶i̶4̶f̶o̶c̶k̶c̶i̶, p̶s̶i̶x̶a̶s̶,
                r̶e̶s̶p̶, s̶i̶m̶i̶n̶t̶, s̶n̶s̶m̶p̶2̶, v̶2̶r̶d̶m̶_̶c̶a̶s̶s̶c̶f̶

  ==> Input QCSchema <==

--------------------------------------------------------------------------
{'driver': 'gradient',
 'extras': {'psiapi': True, 'wfn_qcvars_only': True},
 'id': None,
 'keywords': {'DFT_GRID_NAME': 'SG1',
              'D_CONVERGENCE': 1e-12,
              'E_CONVERGENCE': 1e-12,
              'GUESS': 'SAD',
              'G_CONVERGENCE': 'GAU_VERYTIGHT',
              'PARENT_SYMMETRY': 'C2v(Y)',
              'PUREAM': 1,
              'REFERENCE': 'RKS',
              'function_kwargs': {}},
 'model': {'basis': 'cc-pvdz', 'method': 'b3lyp'},
 'molecule': {'atom_labels': ['', '', ''],
              'atomic_numbers': [6, 7, 1],
              'extras': {},
              'fix_com': True,
              'fix_orientation': True,
              'fragment_charges': [0.0],
              'fragment_multiplicities': [1],
              'fragments': [[0, 1, 2]],
              'geometry': [0.0, -0.9454810085897837, 0.0, 0.0, 1.2426621177231278, 0.0, 0.0, -2.9805760098720313, 0.0],
              'mass_numbers': [12, 14, 1],
              'masses': [12.0, 14.00307400443, 1.00782503223],
              'molecular_charge': 0.0,
              'molecular_multiplicity': 1,
              'name': 'CHN',
              'provenance': {'creator': 'QCElemental',
                             'routine': 'qcelemental.molparse.from_string',
                             'version': '0.29.0'},
              'real': [True, True, True],
              'schema_name': 'qcschema_molecule',
              'schema_version': 2,
              'symbols': ['C', 'N', 'H'],
              'validated': True},
 'protocols': {'stdout': True},
 'provenance': {'creator': 'QCElemental', 'routine': 'qcelemental.models.results', 'version': '0.29.0'},
 'schema_name': 'qcschema_input',
 'schema_version': 1}
--------------------------------------------------------------------------

Scratch directory: /tmp/
gradient() will perform analytic gradient computation.
   => Libint2 <=

    Primary   basis highest AM E, G, H:  6, 6, 3
    Auxiliary basis highest AM E, G, H:  7, 7, 4
    Onebody   basis highest AM E, G, H:  -, -, -
    Solid Harmonics ordering:            Gaussian

*** tstart() called on wifi-roaming-128-4-180-132.wifi.udel.edu
*** at Mon Dec  1 11:02:33 2025

   => Loading Basis Set <=

    Name: CC-PVDZ
    Role: ORBITAL
    Keyword: BASIS
    atoms 1 entry C          line   138 file /Users/taoli/miniforge3/envs/mxl/share/psi4/basis/cc-pvdz.gbs 
    atoms 2 entry N          line   168 file /Users/taoli/miniforge3/envs/mxl/share/psi4/basis/cc-pvdz.gbs 
    atoms 3 entry H          line    22 file /Users/taoli/miniforge3/envs/mxl/share/psi4/basis/cc-pvdz.gbs 


         ---------------------------------------------------------
                                   SCF
               by Justin Turney, Rob Parrish, Andy Simmonett
                          and Daniel G. A. Smith
                              RKS Reference
                        1 Threads,    953 MiB Core
         ---------------------------------------------------------

  ==> Geometry <==

    Molecular point group: c2v
    Full point group: C_inf_v

    Geometry (in Bohr), charge = 0, multiplicity = 1:

       Center              X                  Y                   Z               Mass       
    ------------   -----------------  -----------------  -----------------  -----------------
         C            0.000000000000    -0.945481008590     0.000000000000    12.000000000000
         N            0.000000000000     1.242662117723     0.000000000000    14.003074004430
         H            0.000000000000    -2.980576009872     0.000000000000     1.007825032230

  Running in c2v symmetry.

  Rotational constants: A = ************  B =      1.45747  C =      1.45747 [cm^-1]
  Rotational constants: A = ************  B =  43693.85214  C =  43693.85214 [MHz]
  Nuclear repulsion =   23.800118088231706

  Charge       = 0
  Multiplicity = 1
  Electrons    = 14
  Nalpha       = 7
  Nbeta        = 7

  ==> Algorithm <==

  SCF Algorithm Type is DF.
  DIIS enabled.
  MOM disabled.
  Fractional occupation disabled.
  Guess Type is SAD.
  Energy threshold   = 1.00e-12
  Density threshold  = 1.00e-12
  Integral threshold = 1.00e-12

  ==> Primary Basis <==

  Basis Set: CC-PVDZ
    Blend: CC-PVDZ
    Number of shells: 15
    Number of basis functions: 33
    Number of Cartesian functions: 35
    Spherical Harmonics?: true
    Max angular momentum: 2

  ==> DFT Potential <==

   => LibXC <=

    Version 7.0.0
    S. Lehtola, C. Steigemann, M. J.T. Oliveira, and M. A.L. Marques.,  SoftwareX 7, 1–5 (2018) (10.1016/j.softx.2017.11.002)

   => Composite Functional: B3LYP <= 

    B3LYP Hyb-GGA Exchange-Correlation Functional

    P. J. Stephens, F. J. Devlin, C. F. Chabalowski, and M. J. Frisch.,  J. Phys. Chem. 98, 11623 (1994) (10.1021/j100096a001)

    Deriv               =              1
    GGA                 =           TRUE
    Meta                =          FALSE

    Exchange Hybrid     =           TRUE
    MP2 Hybrid          =          FALSE

   => Exchange Functionals <=

    0.0800   Slater exchange
    0.7200         Becke 88

   => Exact (HF) Exchange <=

    0.2000               HF 

   => Correlation Functionals <=

    0.1900   Vosko, Wilk & Nusair (VWN5_RPA)
    0.8100   Lee, Yang & Parr

   => LibXC Density Thresholds  <==

    XC_HYB_GGA_XC_B3LYP:  1.00E-15 

   => Molecular Quadrature <=

    Radial Scheme          =       TREUTLER
    Pruning Scheme         =           NONE
    Nuclear Scheme         =       TREUTLER

    Blocking Scheme        =         OCTREE
    BS radius alpha        =              1
    Pruning alpha          =              1
    Radial Points          =             75
    Spherical Points       =            302
    Total Points           =           8696
    Total Blocks           =             99
    Max Points             =            241
    Max Functions          =             33
    Weights Tolerance      =       1.00E-15

   => Loading Basis Set <=

    Name: (CC-PVDZ AUX)
    Role: JKFIT
    Keyword: DF_BASIS_SCF
    atoms 1 entry C          line   121 file /Users/taoli/miniforge3/envs/mxl/share/psi4/basis/cc-pvdz-jkfit.gbs 
    atoms 2 entry N          line   171 file /Users/taoli/miniforge3/envs/mxl/share/psi4/basis/cc-pvdz-jkfit.gbs 
    atoms 3 entry H          line    51 file /Users/taoli/miniforge3/envs/mxl/share/psi4/basis/cc-pvdz-jkfit.gbs 

  ==> Integral Setup <==

  DFHelper Memory: AOs need 0.002 GiB; user supplied 0.690 GiB. 
  SCF_SUBTYPE=INCORE selected. In-core MEM_DF algorithm will be used.
  Using in-core AOs.

  ==> MemDFJK: Density-Fitted J/K Matrices <==

    J tasked:                   Yes
    K tasked:                   Yes
    wK tasked:                   No
    OpenMP threads:               1
    Memory [MiB]:               706
    Algorithm:                 Core
    Schwarz Cutoff:           1E-12
    Mask sparsity (%):       0.0000
    Fitting Condition:        1E-10

   => Auxiliary Basis Set <=

  Basis Set: (CC-PVDZ AUX)
    Blend: CC-PVDZ-JKFIT
    Number of shells: 57
    Number of basis functions: 163
    Number of Cartesian functions: 187
    Spherical Harmonics?: true
    Max angular momentum: 3

  Cached 100.0% of DFT collocation blocks in 0.008 [GiB].

  Minimum eigenvalue in the overlap matrix is 7.6621426267E-03.
  Reciprocal condition number of the overlap matrix is 2.1674072782E-03.
    Using symmetric orthogonalization.

  ==> Pre-Iterations <==

  SCF Guess: Superposition of Atomic Densities via on-the-fly atomic UHF (no occupation information).

   -------------------------
    Irrep   Nso     Nmo    
   -------------------------
     A1        17      17 
     A2         2       2 
     B1         7       7 
     B2         7       7 
   -------------------------
    Total      33      33
   -------------------------

  ==> Iterations <==

                           Total Energy        Delta E     RMS |[F,P]|

   @DF-RKS iter SAD:   -93.03286414931316   -9.30329e+01   0.00000e+00 
   @DF-RKS iter   1:   -93.12465907002620   -9.17949e-02   3.40725e-02 ADIIS/DIIS
   @DF-RKS iter   2:   -93.30092251301606   -1.76263e-01   2.37856e-02 ADIIS/DIIS
   @DF-RKS iter   3:   -93.42908231537704   -1.28160e-01   2.31045e-03 ADIIS/DIIS
   @DF-RKS iter   4:   -93.42961957962382   -5.37264e-04   1.74522e-03 ADIIS/DIIS
   @DF-RKS iter   5:   -93.43011379328374   -4.94214e-04   5.95949e-04 ADIIS/DIIS
   @DF-RKS iter   6:   -93.43017175880587   -5.79655e-05   2.67535e-05 DIIS
   @DF-RKS iter   7:   -93.43017189447161   -1.35666e-07   6.13430e-07 DIIS
   @DF-RKS iter   8:   -93.43017189456825   -9.66338e-11   1.31261e-07 DIIS
   @DF-RKS iter   9:   -93.43017189457237   -4.12115e-12   5.05961e-08 DIIS
   @DF-RKS iter  10:   -93.43017189457285   -4.83169e-13   9.10497e-10 DIIS
   @DF-RKS iter  11:   -93.43017189457281    4.26326e-14   3.19416e-11 DIIS
   @DF-RKS iter  12:   -93.43017189457282   -1.42109e-14   2.41676e-12 DIIS
   @DF-RKS iter  13:   -93.43017189457277    5.68434e-14   3.47346e-14 DIIS
  Energy and wave function converged.


  ==> Post-Iterations <==

   Electrons on quadrature grid:
      Ntotal   =   14.0000236810 ; deviation = 2.368e-05 

    Orbital Energies [Eh]
    ---------------------

    Doubly Occupied:                                                      

       1A1   -14.357298     2A1   -10.247026     3A1    -0.923576  
       4A1    -0.605444     5A1    -0.383336     1B1    -0.361886  
       1B2    -0.361886  

    Virtual:                                                              

       2B2     0.015060     2B1     0.015060     6A1     0.057223  
       7A1     0.199166     3B2     0.459876     3B1     0.459876  
       8A1     0.542282     9A1     0.668482    10A1     0.738786  
       4B2     0.788419     4B1     0.788419    11A1     0.983293  
       5B1     1.081306     5B2     1.081306    12A1     1.097914  
       1A2     1.097918    13A1     1.441846     6B1     1.711240  
       6B2     1.711240     2A2     1.876047    14A1     1.876048  
      15A1     2.053746     7B2     2.551944     7B1     2.551944  
      16A1     2.796586    17A1     3.040694  

    Final Occupation by Irrep:
             A1    A2    B1    B2 
    DOCC [     5,    0,    1,    1 ]
    NA   [     5,    0,    1,    1 ]
    NB   [     5,    0,    1,    1 ]

  @DF-RKS Final Energy:   -93.43017189457277

   => Energetics <=

    Nuclear Repulsion Energy =             23.8001180882317058
    One-Electron Energy =                -172.6445136244857395
    Two-Electron Energy =                  65.6063122649591151
    DFT Exchange-Correlation Energy =     -10.1920886232778347
    Empirical Dispersion Energy =           0.0000000000000000
    VV10 Nonlocal Energy =                  0.0000000000000000
    Total Energy =                        -93.4301718945727657

Computation Completed


Properties will be evaluated at   0.000000,   0.000000,   0.000000 [a0]

Properties computed using the SCF density matrix


 Multipole Moments:

 ------------------------------------------------------------------------------------
     Multipole            Electronic (a.u.)      Nuclear  (a.u.)        Total (a.u.)
 ------------------------------------------------------------------------------------

 L = 1.  Multiply by 2.5417464519 to convert [e a0] to [Debye]
 Dipole X            :          0.0000000            0.0000000            0.0000000
 Dipole Y            :         -1.1449373            0.0451728           -1.0997645
 Dipole Z            :          0.0000000            0.0000000            0.0000000
 Magnitude           :                                                    1.0997645

 ------------------------------------------------------------------------------------

*** tstop() called on wifi-roaming-128-4-180-132.wifi.udel.edu at Mon Dec  1 11:02:33 2025
Module time:
	user time   =       0.67 seconds =       0.01 minutes
	system time =       0.69 seconds =       0.01 minutes
	total time  =          0 seconds =       0.00 minutes
Total time:
	user time   =       0.67 seconds =       0.01 minutes
	system time =       0.69 seconds =       0.01 minutes
	total time  =          0 seconds =       0.00 minutes

*** tstart() called on wifi-roaming-128-4-180-132.wifi.udel.edu
*** at Mon Dec  1 11:02:33 2025


         ------------------------------------------------------------
                                   SCF GRAD                          
                          Rob Parrish, Justin Turney,                
                       Andy Simmonett, and Alex Sokolov              
         ------------------------------------------------------------

  ==> Geometry <==

    Molecular point group: c2v
    Full point group: C_inf_v

    Geometry (in Bohr), charge = 0, multiplicity = 1:

       Center              X                  Y                   Z               Mass       
    ------------   -----------------  -----------------  -----------------  -----------------
         C            0.000000000000    -0.945481008590     0.000000000000    12.000000000000
         N            0.000000000000     1.242662117723     0.000000000000    14.003074004430
         H            0.000000000000    -2.980576009872     0.000000000000     1.007825032230

  Nuclear repulsion =   23.800118088231706

  ==> Basis Set <==

  Basis Set: CC-PVDZ
    Blend: CC-PVDZ
    Number of shells: 15
    Number of basis functions: 33
    Number of Cartesian functions: 35
    Spherical Harmonics?: true
    Max angular momentum: 2

  ==> DFJKGrad: Density-Fitted SCF Gradients <==

    Gradient:                    1
    J tasked:                  Yes
    K tasked:                  Yes
    wK tasked:                  No
    OpenMP threads:              1
    Integrals threads:           1
    Memory [MiB]:              715
    Schwarz Cutoff:          1E-12
    Fitting Condition:       1E-10

   => Auxiliary Basis Set <=

  Basis Set: (CC-PVDZ AUX)
    Blend: CC-PVDZ-JKFIT
    Number of shells: 57
    Number of basis functions: 163
    Number of Cartesian functions: 187
    Spherical Harmonics?: true
    Max angular momentum: 3

  ==> DFT Potential <==

   => LibXC <=

    Version 7.0.0
    S. Lehtola, C. Steigemann, M. J.T. Oliveira, and M. A.L. Marques.,  SoftwareX 7, 1–5 (2018) (10.1016/j.softx.2017.11.002)

   => Composite Functional: B3LYP <= 

    B3LYP Hyb-GGA Exchange-Correlation Functional

    P. J. Stephens, F. J. Devlin, C. F. Chabalowski, and M. J. Frisch.,  J. Phys. Chem. 98, 11623 (1994) (10.1021/j100096a001)

    Deriv               =              1
    GGA                 =           TRUE
    Meta                =          FALSE

    Exchange Hybrid     =           TRUE
    MP2 Hybrid          =          FALSE

   => Exchange Functionals <=

    0.0800   Slater exchange
    0.7200         Becke 88

   => Exact (HF) Exchange <=

    0.2000               HF 

   => Correlation Functionals <=

    0.1900   Vosko, Wilk & Nusair (VWN5_RPA)
    0.8100   Lee, Yang & Parr

   => LibXC Density Thresholds  <==

    XC_HYB_GGA_XC_B3LYP:  1.00E-15 

   => Molecular Quadrature <=

    Radial Scheme          =       TREUTLER
    Pruning Scheme         =           NONE
    Nuclear Scheme         =       TREUTLER

    Blocking Scheme        =         OCTREE
    BS radius alpha        =              1
    Pruning alpha          =              1
    Radial Points          =             75
    Spherical Points       =            302
    Total Points           =           8696
    Total Blocks           =             99
    Max Points             =            241
    Max Functions          =             33
    Weights Tolerance      =       1.00E-15


  -Total Gradient:
     Atom            X                  Y                   Z
    ------   -----------------  -----------------  -----------------
       1        0.000000000000     0.000039923894     0.000000000000
       2        0.000000000000     0.000035799240     0.000000000000
       3        0.000000000000     0.000023769948     0.000000000000


*** tstop() called on wifi-roaming-128-4-180-132.wifi.udel.edu at Mon Dec  1 11:02:33 2025
Module time:
	user time   =       0.08 seconds =       0.00 minutes
	system time =       0.07 seconds =       0.00 minutes
	total time  =          0 seconds =       0.00 minutes
Total time:
	user time   =       0.75 seconds =       0.01 minutes
	system time =       0.76 seconds =       0.01 minutes
	total time  =          0 seconds =       0.00 minutes

    Psi4 stopped on: Monday, 01 December 2025 11:02AM
    Psi4 wall time for execution: 0:00:00.53


    -----------------------------------------------------------------------
          Psi4: An Open-Source Ab Initio Electronic Structure Package
                               Psi4 1.10 release

                         Git: Rev {} zzzzzzz 


    D. G. A. Smith, L. A. Burns, A. C. Simmonett, R. M. Parrish,
    M. C. Schieber, R. Galvelis, P. Kraus, H. Kruse, R. Di Remigio,
    A. Alenaizan, A. M. James, S. Lehtola, J. P. Misiewicz, M. Scheurer,
    R. A. Shaw, J. B. Schriber, Y. Xie, Z. L. Glick, D. A. Sirianni,
    J. S. O'Brien, J. M. Waldrop, A. Kumar, E. G. Hohenstein,
    B. P. Pritchard, B. R. Brooks, H. F. Schaefer III, A. Yu. Sokolov,
    K. Patkowski, A. E. DePrince III, U. Bozkaya, R. A. King,
    F. A. Evangelista, J. M. Turney, T. D. Crawford, C. D. Sherrill,
    J. Chem. Phys. 152(18) 184108 (2020). https://doi.org/10.1063/5.0006002

                            Additional Code Authors
    E. T. Seidl, C. L. Janssen, E. F. Valeev, M. L. Leininger,
    J. F. Gonthier, R. M. Richard, H. R. McAlexander, M. Saitow, X. Wang,
    P. Verma, M. H. Lechner, A. Jiang, S. Behnle, A. G. Heide,
    M. F. Herbst, D. L. Poole, T. Győri, E. C. Mitchell, J. P. Pederson,
    and A. M. Wallace

             Previous Authors, Complete List of Code Contributors,
                       and Citations for Specific Modules
    https://github.com/psi4/psi4/blob/master/codemeta.json
    https://github.com/psi4/psi4/graphs/contributors
    https://psicode.org/psi4manual/master/introduction.html#citing-psifour

    -----------------------------------------------------------------------


    Psi4 started on: Monday, 01 December 2025 11:02AM

    Process ID: 36257
    Host:       wifi-roaming-128-4-180-132.wifi.udel.edu
    PSIDATADIR: /Users/taoli/miniforge3/envs/mxl/share/psi4
    Memory:     953.7 MiB
    Threads:    1
    Addons:     a̶d̶c̶c̶, a̶m̶b̶i̶t̶, b̶s̶e̶, c̶c̶t̶3̶, c̶f̶o̶u̶r̶, c̶h̶e̶m̶p̶s̶2̶, c̶p̶p̶e̶, d̶d̶x̶,
                d̶f̶t̶d̶3̶, d̶f̶t̶d̶4̶, dkh, ecpint, einsums, f̶o̶r̶t̶e̶, g̶a̶u̶x̶c̶, g̶c̶p̶,
                g̶d̶m̶a̶, g̶e̶o̶m̶e̶t̶r̶i̶c̶, g̶p̶u̶_̶d̶f̶c̶c̶, i̶n̶t̶e̶g̶r̶a̶t̶o̶r̶x̶x̶,
                i̶p̶i̶, l̶i̶b̶e̶f̶p̶, m̶d̶i̶, m̶p̶2̶d̶, m̶r̶c̶c̶, ooo,
                o̶p̶e̶n̶f̶e̶r̶m̶i̶o̶n̶p̶s̶i̶4̶, pcmsolver, p̶s̶i̶4̶f̶o̶c̶k̶c̶i̶, p̶s̶i̶x̶a̶s̶,
                r̶e̶s̶p̶, s̶i̶m̶i̶n̶t̶, s̶n̶s̶m̶p̶2̶, v̶2̶r̶d̶m̶_̶c̶a̶s̶s̶c̶f̶

  ==> Input QCSchema <==

--------------------------------------------------------------------------
{'driver': 'gradient',
 'extras': {'psiapi': True, 'wfn_qcvars_only': True},
 'id': None,
 'keywords': {'DFT_GRID_NAME': 'SG1',
              'D_CONVERGENCE': 1e-12,
              'E_CONVERGENCE': 1e-12,
              'GUESS': 'SAD',
              'G_CONVERGENCE': 'GAU_VERYTIGHT',
              'PARENT_SYMMETRY': 'C2v(Y)',
              'PUREAM': 1,
              'REFERENCE': 'RKS',
              'function_kwargs': {'write_orbitals': False}},
 'model': {'basis': 'cc-pvdz', 'method': 'b3lyp'},
 'molecule': {'atom_labels': ['', '', ''],
              'atomic_numbers': [6, 7, 1],
              'extras': {},
              'fix_com': True,
              'fix_orientation': True,
              'fragment_charges': [0.0],
              'fragment_multiplicities': [1],
              'fragments': [[0, 1, 2]],
              'geometry': [0.0, -0.946557010924019, 0.0, 0.0, 1.2435222945839068, 0.0, 0.0, -2.9797158330112525, 0.0],
              'mass_numbers': [12, 14, 1],
              'masses': [12.0, 14.00307400443, 1.00782503223],
              'molecular_charge': 0.0,
              'molecular_multiplicity': 1,
              'name': 'CHN',
              'provenance': {'creator': 'QCElemental',
                             'routine': 'qcelemental.molparse.from_string',
                             'version': '0.29.0'},
              'real': [True, True, True],
              'schema_name': 'qcschema_molecule',
              'schema_version': 2,
              'symbols': ['C', 'N', 'H'],
              'validated': True},
 'protocols': {'stdout': True},
 'provenance': {'creator': 'QCElemental', 'routine': 'qcelemental.models.results', 'version': '0.29.0'},
 'schema_name': 'qcschema_input',
 'schema_version': 1}
--------------------------------------------------------------------------

Scratch directory: /tmp/
gradient() will perform analytic gradient computation.
   => Libint2 <=

    Primary   basis highest AM E, G, H:  6, 6, 3
    Auxiliary basis highest AM E, G, H:  7, 7, 4
    Onebody   basis highest AM E, G, H:  -, -, -
    Solid Harmonics ordering:            Gaussian

*** tstart() called on wifi-roaming-128-4-180-132.wifi.udel.edu
*** at Mon Dec  1 11:02:33 2025

   => Loading Basis Set <=

    Name: CC-PVDZ
    Role: ORBITAL
    Keyword: BASIS
    atoms 1 entry C          line   138 file /Users/taoli/miniforge3/envs/mxl/share/psi4/basis/cc-pvdz.gbs 
    atoms 2 entry N          line   168 file /Users/taoli/miniforge3/envs/mxl/share/psi4/basis/cc-pvdz.gbs 
    atoms 3 entry H          line    22 file /Users/taoli/miniforge3/envs/mxl/share/psi4/basis/cc-pvdz.gbs 


         ---------------------------------------------------------
                                   SCF
               by Justin Turney, Rob Parrish, Andy Simmonett
                          and Daniel G. A. Smith
                              RKS Reference
                        1 Threads,    953 MiB Core
         ---------------------------------------------------------

  ==> Geometry <==

    Molecular point group: c2v
    Full point group: C_inf_v

    Geometry (in Bohr), charge = 0, multiplicity = 1:

       Center              X                  Y                   Z               Mass       
    ------------   -----------------  -----------------  -----------------  -----------------
         C            0.000000000000    -0.946557010924     0.000000000000    12.000000000000
         N            0.000000000000     1.243522294584     0.000000000000    14.003074004430
         H            0.000000000000    -2.979715833011     0.000000000000     1.007825032230

  Running in c2v symmetry.

  Rotational constants: A = ************  B =      1.45574  C =      1.45574 [cm^-1]
  Rotational constants: A = ************  B =  43641.85771  C =  43641.85771 [MHz]
  Nuclear repulsion =   23.785956606156766

  Charge       = 0
  Multiplicity = 1
  Electrons    = 14
  Nalpha       = 7
  Nbeta        = 7

  ==> Algorithm <==

  SCF Algorithm Type is DF.
  DIIS enabled.
  MOM disabled.
  Fractional occupation disabled.
  Guess Type is SAD.
  Energy threshold   = 1.00e-12
  Density threshold  = 1.00e-12
  Integral threshold = 1.00e-12

  ==> Primary Basis <==

  Basis Set: CC-PVDZ
    Blend: CC-PVDZ
    Number of shells: 15
    Number of basis functions: 33
    Number of Cartesian functions: 35
    Spherical Harmonics?: true
    Max angular momentum: 2

  ==> DFT Potential <==

   => LibXC <=

    Version 7.0.0
    S. Lehtola, C. Steigemann, M. J.T. Oliveira, and M. A.L. Marques.,  SoftwareX 7, 1–5 (2018) (10.1016/j.softx.2017.11.002)

   => Composite Functional: B3LYP <= 

    B3LYP Hyb-GGA Exchange-Correlation Functional

    P. J. Stephens, F. J. Devlin, C. F. Chabalowski, and M. J. Frisch.,  J. Phys. Chem. 98, 11623 (1994) (10.1021/j100096a001)

    Deriv               =              1
    GGA                 =           TRUE
    Meta                =          FALSE

    Exchange Hybrid     =           TRUE
    MP2 Hybrid          =          FALSE

   => Exchange Functionals <=

    0.0800   Slater exchange
    0.7200         Becke 88

   => Exact (HF) Exchange <=

    0.2000               HF 

   => Correlation Functionals <=

    0.1900   Vosko, Wilk & Nusair (VWN5_RPA)
    0.8100   Lee, Yang & Parr

   => LibXC Density Thresholds  <==

    XC_HYB_GGA_XC_B3LYP:  1.00E-15 

   => Molecular Quadrature <=

    Radial Scheme          =       TREUTLER
    Pruning Scheme         =           NONE
    Nuclear Scheme         =       TREUTLER

    Blocking Scheme        =         OCTREE
    BS radius alpha        =              1
    Pruning alpha          =              1
    Radial Points          =             75
    Spherical Points       =            302
    Total Points           =           8693
    Total Blocks           =             99
    Max Points             =            241
    Max Functions          =             33
    Weights Tolerance      =       1.00E-15

   => Loading Basis Set <=

    Name: (CC-PVDZ AUX)
    Role: JKFIT
    Keyword: DF_BASIS_SCF
    atoms 1 entry C          line   121 file /Users/taoli/miniforge3/envs/mxl/share/psi4/basis/cc-pvdz-jkfit.gbs 
    atoms 2 entry N          line   171 file /Users/taoli/miniforge3/envs/mxl/share/psi4/basis/cc-pvdz-jkfit.gbs 
    atoms 3 entry H          line    51 file /Users/taoli/miniforge3/envs/mxl/share/psi4/basis/cc-pvdz-jkfit.gbs 

  ==> Integral Setup <==

  DFHelper Memory: AOs need 0.002 GiB; user supplied 0.690 GiB. 
  SCF_SUBTYPE=INCORE selected. In-core MEM_DF algorithm will be used.
  Using in-core AOs.

  ==> MemDFJK: Density-Fitted J/K Matrices <==

    J tasked:                   Yes
    K tasked:                   Yes
    wK tasked:                   No
    OpenMP threads:               1
    Memory [MiB]:               706
    Algorithm:                 Core
    Schwarz Cutoff:           1E-12
    Mask sparsity (%):       0.0000
    Fitting Condition:        1E-10

   => Auxiliary Basis Set <=

  Basis Set: (CC-PVDZ AUX)
    Blend: CC-PVDZ-JKFIT
    Number of shells: 57
    Number of basis functions: 163
    Number of Cartesian functions: 187
    Spherical Harmonics?: true
    Max angular momentum: 3

  Cached 100.0% of DFT collocation blocks in 0.008 [GiB].

  Minimum eigenvalue in the overlap matrix is 7.6747426626E-03.
  Reciprocal condition number of the overlap matrix is 2.1709281216E-03.
    Using symmetric orthogonalization.

  ==> Pre-Iterations <==

  SCF Guess: Superposition of Atomic Densities via on-the-fly atomic UHF (no occupation information).

   -------------------------
    Irrep   Nso     Nmo    
   -------------------------
     A1        17      17 
     A2         2       2 
     B1         7       7 
     B2         7       7 
   -------------------------
    Total      33      33
   -------------------------

  ==> Iterations <==

                           Total Energy        Delta E     RMS |[F,P]|

   @DF-RKS iter SAD:   -93.03103734798687   -9.30310e+01   0.00000e+00 
   @DF-RKS iter   1:   -93.12453487607050   -9.34975e-02   3.40907e-02 ADIIS/DIIS
   @DF-RKS iter   2:   -93.30095468435940   -1.76420e-01   2.37875e-02 ADIIS/DIIS
   @DF-RKS iter   3:   -93.42903369227218   -1.28079e-01   2.36317e-03 ADIIS/DIIS
   @DF-RKS iter   4:   -93.42940748386387   -3.73792e-04   2.05634e-03 ADIIS/DIIS
   @DF-RKS iter   5:   -93.43012502134181   -7.17537e-04   5.17876e-04 ADIIS/DIIS
   @DF-RKS iter   6:   -93.43016838788137   -4.33665e-05   2.82365e-05 DIIS
   @DF-RKS iter   7:   -93.43016853835019   -1.50469e-07   6.22407e-07 DIIS
   @DF-RKS iter   8:   -93.43016853844897   -9.87797e-11   1.31121e-07 DIIS
   @DF-RKS iter   9:   -93.43016853845312   -4.14957e-12   5.08749e-08 DIIS
   @DF-RKS iter  10:   -93.43016853845356   -4.40536e-13   9.13594e-10 DIIS
   @DF-RKS iter  11:   -93.43016853845350    5.68434e-14   3.24644e-11 DIIS
   @DF-RKS iter  12:   -93.43016853845361   -1.13687e-13   2.26060e-12 DIIS
   @DF-RKS iter  13:   -93.43016853845350    1.13687e-13   3.38983e-14 DIIS
  Energy and wave function converged.


  ==> Post-Iterations <==

   Electrons on quadrature grid:
      Ntotal   =   14.0000236788 ; deviation = 2.368e-05 

    Orbital Energies [Eh]
    ---------------------

    Doubly Occupied:                                                      

       1A1   -14.357599     2A1   -10.247223     3A1    -0.923218  
       4A1    -0.605831     5A1    -0.383447     1B1    -0.361686  
       1B2    -0.361686  

    Virtual:                                                              

       2B1     0.014659     2B2     0.014659     6A1     0.057449  
       7A1     0.199077     3B1     0.459921     3B2     0.459921  
       8A1     0.542398     9A1     0.668252    10A1     0.738965  
       4B2     0.788324     4B1     0.788324    11A1     0.982259  
       5B2     1.081032     5B1     1.081032    12A1     1.097964  
       1A2     1.097968    13A1     1.441531     6B1     1.711220  
       6B2     1.711220     2A2     1.875635    14A1     1.875636  
      15A1     2.054463     7B1     2.551514     7B2     2.551514  
      16A1     2.794994    17A1     3.040466  

    Final Occupation by Irrep:
             A1    A2    B1    B2 
    DOCC [     5,    0,    1,    1 ]
    NA   [     5,    0,    1,    1 ]
    NB   [     5,    0,    1,    1 ]

  @DF-RKS Final Energy:   -93.43016853845350

   => Energetics <=

    Nuclear Repulsion Energy =             23.7859566061567662
    One-Electron Energy =                -172.6161152435891211
    Two-Electron Energy =                  65.5914833286363859
    DFT Exchange-Correlation Energy =     -10.1914932296575174
    Empirical Dispersion Energy =           0.0000000000000000
    VV10 Nonlocal Energy =                  0.0000000000000000
    Total Energy =                        -93.4301685384535006

Computation Completed


Properties will be evaluated at   0.000000,   0.000000,   0.000000 [a0]

Properties computed using the SCF density matrix


 Multipole Moments:

 ------------------------------------------------------------------------------------
     Multipole            Electronic (a.u.)      Nuclear  (a.u.)        Total (a.u.)
 ------------------------------------------------------------------------------------

 L = 1.  Multiply by 2.5417464519 to convert [e a0] to [Debye]
 Dipole X            :          0.0000000            0.0000000            0.0000000
 Dipole Y            :         -1.1448842            0.0455982           -1.0992860
 Dipole Z            :          0.0000000            0.0000000            0.0000000
 Magnitude           :                                                    1.0992860

 ------------------------------------------------------------------------------------

*** tstop() called on wifi-roaming-128-4-180-132.wifi.udel.edu at Mon Dec  1 11:02:34 2025
Module time:
	user time   =       0.42 seconds =       0.01 minutes
	system time =       0.39 seconds =       0.01 minutes
	total time  =          1 seconds =       0.02 minutes
Total time:
	user time   =       1.22 seconds =       0.02 minutes
	system time =       1.20 seconds =       0.02 minutes
	total time  =          1 seconds =       0.02 minutes

*** tstart() called on wifi-roaming-128-4-180-132.wifi.udel.edu
*** at Mon Dec  1 11:02:34 2025


         ------------------------------------------------------------
                                   SCF GRAD                          
                          Rob Parrish, Justin Turney,                
                       Andy Simmonett, and Alex Sokolov              
         ------------------------------------------------------------

  ==> Geometry <==

    Molecular point group: c2v
    Full point group: C_inf_v

    Geometry (in Bohr), charge = 0, multiplicity = 1:

       Center              X                  Y                   Z               Mass       
    ------------   -----------------  -----------------  -----------------  -----------------
         C            0.000000000000    -0.946557010924     0.000000000000    12.000000000000
         N            0.000000000000     1.243522294584     0.000000000000    14.003074004430
         H            0.000000000000    -2.979715833011     0.000000000000     1.007825032230

  Nuclear repulsion =   23.785956606156766

  ==> Basis Set <==

  Basis Set: CC-PVDZ
    Blend: CC-PVDZ
    Number of shells: 15
    Number of basis functions: 33
    Number of Cartesian functions: 35
    Spherical Harmonics?: true
    Max angular momentum: 2

  ==> DFJKGrad: Density-Fitted SCF Gradients <==

    Gradient:                    1
    J tasked:                  Yes
    K tasked:                  Yes
    wK tasked:                  No
    OpenMP threads:              1
    Integrals threads:           1
    Memory [MiB]:              715
    Schwarz Cutoff:          1E-12
    Fitting Condition:       1E-10

   => Auxiliary Basis Set <=

  Basis Set: (CC-PVDZ AUX)
    Blend: CC-PVDZ-JKFIT
    Number of shells: 57
    Number of basis functions: 163
    Number of Cartesian functions: 187
    Spherical Harmonics?: true
    Max angular momentum: 3

  ==> DFT Potential <==

   => LibXC <=

    Version 7.0.0
    S. Lehtola, C. Steigemann, M. J.T. Oliveira, and M. A.L. Marques.,  SoftwareX 7, 1–5 (2018) (10.1016/j.softx.2017.11.002)

   => Composite Functional: B3LYP <= 

    B3LYP Hyb-GGA Exchange-Correlation Functional

    P. J. Stephens, F. J. Devlin, C. F. Chabalowski, and M. J. Frisch.,  J. Phys. Chem. 98, 11623 (1994) (10.1021/j100096a001)

    Deriv               =              1
    GGA                 =           TRUE
    Meta                =          FALSE

    Exchange Hybrid     =           TRUE
    MP2 Hybrid          =          FALSE

   => Exchange Functionals <=

    0.0800   Slater exchange
    0.7200         Becke 88

   => Exact (HF) Exchange <=

    0.2000               HF 

   => Correlation Functionals <=

    0.1900   Vosko, Wilk & Nusair (VWN5_RPA)
    0.8100   Lee, Yang & Parr

   => LibXC Density Thresholds  <==

    XC_HYB_GGA_XC_B3LYP:  1.00E-15 

   => Molecular Quadrature <=

    Radial Scheme          =       TREUTLER
    Pruning Scheme         =           NONE
    Nuclear Scheme         =       TREUTLER

    Blocking Scheme        =         OCTREE
    BS radius alpha        =              1
    Pruning alpha          =              1
    Radial Points          =             75
    Spherical Points       =            302
    Total Points           =           8693
    Total Blocks           =             99
    Max Points             =            241
    Max Functions          =             33
    Weights Tolerance      =       1.00E-15


  -Total Gradient:
     Atom            X                  Y                   Z
    ------   -----------------  -----------------  -----------------
       1        0.000000000000    -0.003295963190     0.000000000000
       2        0.000000000000     0.002554289141     0.000000000000
       3        0.000000000000     0.000839960328     0.000000000000


*** tstop() called on wifi-roaming-128-4-180-132.wifi.udel.edu at Mon Dec  1 11:02:34 2025
Module time:
	user time   =       0.08 seconds =       0.00 minutes
	system time =       0.07 seconds =       0.00 minutes
	total time  =          0 seconds =       0.00 minutes
Total time:
	user time   =       1.30 seconds =       0.02 minutes
	system time =       1.28 seconds =       0.02 minutes
	total time  =          1 seconds =       0.02 minutes

    Psi4 stopped on: Monday, 01 December 2025 11:02AM
    Psi4 wall time for execution: 0:00:00.35


    -----------------------------------------------------------------------
          Psi4: An Open-Source Ab Initio Electronic Structure Package
                               Psi4 1.10 release

                         Git: Rev {} zzzzzzz 


    D. G. A. Smith, L. A. Burns, A. C. Simmonett, R. M. Parrish,
    M. C. Schieber, R. Galvelis, P. Kraus, H. Kruse, R. Di Remigio,
    A. Alenaizan, A. M. James, S. Lehtola, J. P. Misiewicz, M. Scheurer,
    R. A. Shaw, J. B. Schriber, Y. Xie, Z. L. Glick, D. A. Sirianni,
    J. S. O'Brien, J. M. Waldrop, A. Kumar, E. G. Hohenstein,
    B. P. Pritchard, B. R. Brooks, H. F. Schaefer III, A. Yu. Sokolov,
    K. Patkowski, A. E. DePrince III, U. Bozkaya, R. A. King,
    F. A. Evangelista, J. M. Turney, T. D. Crawford, C. D. Sherrill,
    J. Chem. Phys. 152(18) 184108 (2020). https://doi.org/10.1063/5.0006002

                            Additional Code Authors
    E. T. Seidl, C. L. Janssen, E. F. Valeev, M. L. Leininger,
    J. F. Gonthier, R. M. Richard, H. R. McAlexander, M. Saitow, X. Wang,
    P. Verma, M. H. Lechner, A. Jiang, S. Behnle, A. G. Heide,
    M. F. Herbst, D. L. Poole, T. Győri, E. C. Mitchell, J. P. Pederson,
    and A. M. Wallace

             Previous Authors, Complete List of Code Contributors,
                       and Citations for Specific Modules
    https://github.com/psi4/psi4/blob/master/codemeta.json
    https://github.com/psi4/psi4/graphs/contributors
    https://psicode.org/psi4manual/master/introduction.html#citing-psifour

    -----------------------------------------------------------------------


    Psi4 started on: Monday, 01 December 2025 11:02AM

    Process ID: 36257
    Host:       wifi-roaming-128-4-180-132.wifi.udel.edu
    PSIDATADIR: /Users/taoli/miniforge3/envs/mxl/share/psi4
    Memory:     953.7 MiB
    Threads:    1
    Addons:     a̶d̶c̶c̶, a̶m̶b̶i̶t̶, b̶s̶e̶, c̶c̶t̶3̶, c̶f̶o̶u̶r̶, c̶h̶e̶m̶p̶s̶2̶, c̶p̶p̶e̶, d̶d̶x̶,
                d̶f̶t̶d̶3̶, d̶f̶t̶d̶4̶, dkh, ecpint, einsums, f̶o̶r̶t̶e̶, g̶a̶u̶x̶c̶, g̶c̶p̶,
                g̶d̶m̶a̶, g̶e̶o̶m̶e̶t̶r̶i̶c̶, g̶p̶u̶_̶d̶f̶c̶c̶, i̶n̶t̶e̶g̶r̶a̶t̶o̶r̶x̶x̶,
                i̶p̶i̶, l̶i̶b̶e̶f̶p̶, m̶d̶i̶, m̶p̶2̶d̶, m̶r̶c̶c̶, ooo,
                o̶p̶e̶n̶f̶e̶r̶m̶i̶o̶n̶p̶s̶i̶4̶, pcmsolver, p̶s̶i̶4̶f̶o̶c̶k̶c̶i̶, p̶s̶i̶x̶a̶s̶,
                r̶e̶s̶p̶, s̶i̶m̶i̶n̶t̶, s̶n̶s̶m̶p̶2̶, v̶2̶r̶d̶m̶_̶c̶a̶s̶s̶c̶f̶

  ==> Input QCSchema <==

--------------------------------------------------------------------------
{'driver': 'gradient',
 'extras': {'psiapi': True, 'wfn_qcvars_only': True},
 'id': None,
 'keywords': {'DFT_GRID_NAME': 'SG1',
              'D_CONVERGENCE': 1e-12,
              'E_CONVERGENCE': 1e-12,
              'GUESS': 'SAD',
              'G_CONVERGENCE': 'GAU_VERYTIGHT',
              'PARENT_SYMMETRY': 'C2v(Y)',
              'PUREAM': 1,
              'REFERENCE': 'RKS',
              'function_kwargs': {'write_orbitals': False}},
 'model': {'basis': 'cc-pvdz', 'method': 'b3lyp'},
 'molecule': {'atom_labels': ['', '', ''],
              'atomic_numbers': [6, 7, 1],
              'extras': {},
              'fix_com': True,
              'fix_orientation': True,
              'fragment_charges': [0.0],
              'fragment_multiplicities': [1],
              'fragments': [[0, 1, 2]],
              'geometry': [0.0, -0.9444050062555484, 0.0, 0.0, 1.2418019408623489, 0.0, 0.0, -2.98143618673281, 0.0],
              'mass_numbers': [12, 14, 1],
              'masses': [12.0, 14.00307400443, 1.00782503223],
              'molecular_charge': 0.0,
              'molecular_multiplicity': 1,
              'name': 'CHN',
              'provenance': {'creator': 'QCElemental',
                             'routine': 'qcelemental.molparse.from_string',
                             'version': '0.29.0'},
              'real': [True, True, True],
              'schema_name': 'qcschema_molecule',
              'schema_version': 2,
              'symbols': ['C', 'N', 'H'],
              'validated': True},
 'protocols': {'stdout': True},
 'provenance': {'creator': 'QCElemental', 'routine': 'qcelemental.models.results', 'version': '0.29.0'},
 'schema_name': 'qcschema_input',
 'schema_version': 1}
--------------------------------------------------------------------------

Scratch directory: /tmp/
gradient() will perform analytic gradient computation.
   => Libint2 <=

    Primary   basis highest AM E, G, H:  6, 6, 3
    Auxiliary basis highest AM E, G, H:  7, 7, 4
    Onebody   basis highest AM E, G, H:  -, -, -
    Solid Harmonics ordering:            Gaussian

*** tstart() called on wifi-roaming-128-4-180-132.wifi.udel.edu
*** at Mon Dec  1 11:02:34 2025

   => Loading Basis Set <=

    Name: CC-PVDZ
    Role: ORBITAL
    Keyword: BASIS
    atoms 1 entry C          line   138 file /Users/taoli/miniforge3/envs/mxl/share/psi4/basis/cc-pvdz.gbs 
    atoms 2 entry N          line   168 file /Users/taoli/miniforge3/envs/mxl/share/psi4/basis/cc-pvdz.gbs 
    atoms 3 entry H          line    22 file /Users/taoli/miniforge3/envs/mxl/share/psi4/basis/cc-pvdz.gbs 


         ---------------------------------------------------------
                                   SCF
               by Justin Turney, Rob Parrish, Andy Simmonett
                          and Daniel G. A. Smith
                              RKS Reference
                        1 Threads,    953 MiB Core
         ---------------------------------------------------------

  ==> Geometry <==

    Molecular point group: c2v
    Full point group: C_inf_v

    Geometry (in Bohr), charge = 0, multiplicity = 1:

       Center              X                  Y                   Z               Mass       
    ------------   -----------------  -----------------  -----------------  -----------------
         C            0.000000000000    -0.944405006256     0.000000000000    12.000000000000
         N            0.000000000000     1.241801940862     0.000000000000    14.003074004430
         H            0.000000000000    -2.981436186733     0.000000000000     1.007825032230

  Running in c2v symmetry.

  Rotational constants: A = ************  B =      1.45921  C =      1.45921 [cm^-1]
  Rotational constants: A = ************  B =  43745.91759  C =  43745.91759 [MHz]
  Nuclear repulsion =   23.814314964426266

  Charge       = 0
  Multiplicity = 1
  Electrons    = 14
  Nalpha       = 7
  Nbeta        = 7

  ==> Algorithm <==

  SCF Algorithm Type is DF.
  DIIS enabled.
  MOM disabled.
  Fractional occupation disabled.
  Guess Type is SAD.
  Energy threshold   = 1.00e-12
  Density threshold  = 1.00e-12
  Integral threshold = 1.00e-12

  ==> Primary Basis <==

  Basis Set: CC-PVDZ
    Blend: CC-PVDZ
    Number of shells: 15
    Number of basis functions: 33
    Number of Cartesian functions: 35
    Spherical Harmonics?: true
    Max angular momentum: 2

  ==> DFT Potential <==

   => LibXC <=

    Version 7.0.0
    S. Lehtola, C. Steigemann, M. J.T. Oliveira, and M. A.L. Marques.,  SoftwareX 7, 1–5 (2018) (10.1016/j.softx.2017.11.002)

   => Composite Functional: B3LYP <= 

    B3LYP Hyb-GGA Exchange-Correlation Functional

    P. J. Stephens, F. J. Devlin, C. F. Chabalowski, and M. J. Frisch.,  J. Phys. Chem. 98, 11623 (1994) (10.1021/j100096a001)

    Deriv               =              1
    GGA                 =           TRUE
    Meta                =          FALSE

    Exchange Hybrid     =           TRUE
    MP2 Hybrid          =          FALSE

   => Exchange Functionals <=

    0.0800   Slater exchange
    0.7200         Becke 88

   => Exact (HF) Exchange <=

    0.2000               HF 

   => Correlation Functionals <=

    0.1900   Vosko, Wilk & Nusair (VWN5_RPA)
    0.8100   Lee, Yang & Parr

   => LibXC Density Thresholds  <==

    XC_HYB_GGA_XC_B3LYP:  1.00E-15 

   => Molecular Quadrature <=

    Radial Scheme          =       TREUTLER
    Pruning Scheme         =           NONE
    Nuclear Scheme         =       TREUTLER

    Blocking Scheme        =         OCTREE
    BS radius alpha        =              1
    Pruning alpha          =              1
    Radial Points          =             75
    Spherical Points       =            302
    Total Points           =           8693
    Total Blocks           =             99
    Max Points             =            241
    Max Functions          =             33
    Weights Tolerance      =       1.00E-15

   => Loading Basis Set <=

    Name: (CC-PVDZ AUX)
    Role: JKFIT
    Keyword: DF_BASIS_SCF
    atoms 1 entry C          line   121 file /Users/taoli/miniforge3/envs/mxl/share/psi4/basis/cc-pvdz-jkfit.gbs 
    atoms 2 entry N          line   171 file /Users/taoli/miniforge3/envs/mxl/share/psi4/basis/cc-pvdz-jkfit.gbs 
    atoms 3 entry H          line    51 file /Users/taoli/miniforge3/envs/mxl/share/psi4/basis/cc-pvdz-jkfit.gbs 

  ==> Integral Setup <==

  DFHelper Memory: AOs need 0.002 GiB; user supplied 0.690 GiB. 
  SCF_SUBTYPE=INCORE selected. In-core MEM_DF algorithm will be used.
  Using in-core AOs.

  ==> MemDFJK: Density-Fitted J/K Matrices <==

    J tasked:                   Yes
    K tasked:                   Yes
    wK tasked:                   No
    OpenMP threads:               1
    Memory [MiB]:               706
    Algorithm:                 Core
    Schwarz Cutoff:           1E-12
    Mask sparsity (%):       0.0000
    Fitting Condition:        1E-10

   => Auxiliary Basis Set <=

  Basis Set: (CC-PVDZ AUX)
    Blend: CC-PVDZ-JKFIT
    Number of shells: 57
    Number of basis functions: 163
    Number of Cartesian functions: 187
    Spherical Harmonics?: true
    Max angular momentum: 3

  Cached 100.0% of DFT collocation blocks in 0.008 [GiB].

  Minimum eigenvalue in the overlap matrix is 7.6495708919E-03.
  Reciprocal condition number of the overlap matrix is 2.1638944518E-03.
    Using symmetric orthogonalization.

  ==> Pre-Iterations <==

  SCF Guess: Superposition of Atomic Densities via on-the-fly atomic UHF (no occupation information).

   -------------------------
    Irrep   Nso     Nmo    
   -------------------------
     A1        17      17 
     A2         2       2 
     B1         7       7 
     B2         7       7 
   -------------------------
    Total      33      33
   -------------------------

  ==> Iterations <==

                           Total Energy        Delta E     RMS |[F,P]|

   @DF-RKS iter SAD:   -93.03469000736183   -9.30347e+01   0.00000e+00 
   @DF-RKS iter   1:   -93.12477826554745   -9.00883e-02   3.40542e-02 ADIIS/DIIS
   @DF-RKS iter   2:   -93.30088055776677   -1.76102e-01   2.37841e-02 ADIIS/DIIS
   @DF-RKS iter   3:   -93.42911637770976   -1.28236e-01   2.26677e-03 ADIIS/DIIS
   @DF-RKS iter   4:   -93.42979156762746   -6.75190e-04   1.43447e-03 ADIIS/DIIS
   @DF-RKS iter   5:   -93.43008968855415   -2.98121e-04   6.91813e-04 ADIIS/DIIS
   @DF-RKS iter   6:   -93.43016865452412   -7.89660e-05   2.46394e-05 DIIS
   @DF-RKS iter   7:   -93.43016877043749   -1.15913e-07   6.06841e-07 DIIS
   @DF-RKS iter   8:   -93.43016877053248   -9.49854e-11   1.31597e-07 DIIS
   @DF-RKS iter   9:   -93.43016877053674   -4.26326e-12   5.03307e-08 DIIS
   @DF-RKS iter  10:   -93.43016877053716   -4.26326e-13   9.08681e-10 DIIS
   @DF-RKS iter  11:   -93.43016877053725   -8.52651e-14   3.13372e-11 DIIS
   @DF-RKS iter  12:   -93.43016877053724    1.42109e-14   2.60815e-12 DIIS
   @DF-RKS iter  13:   -93.43016877053708    1.56319e-13   3.66122e-14 DIIS
  Energy and wave function converged.


  ==> Post-Iterations <==

   Electrons on quadrature grid:
      Ntotal   =   14.0000236734 ; deviation = 2.367e-05 

    Orbital Energies [Eh]
    ---------------------

    Doubly Occupied:                                                      

       1A1   -14.356997     2A1   -10.246829     3A1    -0.923934  
       4A1    -0.605058     5A1    -0.383224     1B2    -0.362086  
       1B1    -0.362086  

    Virtual:                                                              

       2B1     0.015463     2B2     0.015463     6A1     0.056997  
       7A1     0.199255     3B2     0.459831     3B1     0.459831  
       8A1     0.542163     9A1     0.668712    10A1     0.738609  
       4B1     0.788514     4B2     0.788514    11A1     0.984334  
       5B2     1.081580     5B1     1.081580    12A1     1.097863  
       1A2     1.097868    13A1     1.442160     6B2     1.711262  
       6B1     1.711262     2A2     1.876459    14A1     1.876460  
      15A1     2.053029     7B1     2.552375     7B2     2.552375  
      16A1     2.798181    17A1     3.040946  

    Final Occupation by Irrep:
             A1    A2    B1    B2 
    DOCC [     5,    0,    1,    1 ]
    NA   [     5,    0,    1,    1 ]
    NB   [     5,    0,    1,    1 ]

  @DF-RKS Final Energy:   -93.43016877053708

   => Energetics <=

    Nuclear Repulsion Energy =             23.8143149644262664
    One-Electron Energy =                -172.6729676701709479
    Two-Electron Energy =                  65.6211704248110550
    DFT Exchange-Correlation Energy =     -10.1926864896034619
    Empirical Dispersion Energy =           0.0000000000000000
    VV10 Nonlocal Energy =                  0.0000000000000000
    Total Energy =                        -93.4301687705370796

Computation Completed


Properties will be evaluated at   0.000000,   0.000000,   0.000000 [a0]

Properties computed using the SCF density matrix


 Multipole Moments:

 ------------------------------------------------------------------------------------
     Multipole            Electronic (a.u.)      Nuclear  (a.u.)        Total (a.u.)
 ------------------------------------------------------------------------------------

 L = 1.  Multiply by 2.5417464519 to convert [e a0] to [Debye]
 Dipole X            :          0.0000000            0.0000000            0.0000000
 Dipole Y            :         -1.1449891            0.0447474           -1.1002417
 Dipole Z            :          0.0000000            0.0000000            0.0000000
 Magnitude           :                                                    1.1002417

 ------------------------------------------------------------------------------------

*** tstop() called on wifi-roaming-128-4-180-132.wifi.udel.edu at Mon Dec  1 11:02:34 2025
Module time:
	user time   =       0.41 seconds =       0.01 minutes
	system time =       0.39 seconds =       0.01 minutes
	total time  =          0 seconds =       0.00 minutes
Total time:
	user time   =       1.76 seconds =       0.03 minutes
	system time =       1.72 seconds =       0.03 minutes
	total time  =          1 seconds =       0.02 minutes

*** tstart() called on wifi-roaming-128-4-180-132.wifi.udel.edu
*** at Mon Dec  1 11:02:34 2025


         ------------------------------------------------------------
                                   SCF GRAD                          
                          Rob Parrish, Justin Turney,                
                       Andy Simmonett, and Alex Sokolov              
         ------------------------------------------------------------

  ==> Geometry <==

    Molecular point group: c2v
    Full point group: C_inf_v

    Geometry (in Bohr), charge = 0, multiplicity = 1:

       Center              X                  Y                   Z               Mass       
    ------------   -----------------  -----------------  -----------------  -----------------
         C            0.000000000000    -0.944405006256     0.000000000000    12.000000000000
         N            0.000000000000     1.241801940862     0.000000000000    14.003074004430
         H            0.000000000000    -2.981436186733     0.000000000000     1.007825032230

  Nuclear repulsion =   23.814314964426266

  ==> Basis Set <==

  Basis Set: CC-PVDZ
    Blend: CC-PVDZ
    Number of shells: 15
    Number of basis functions: 33
    Number of Cartesian functions: 35
    Spherical Harmonics?: true
    Max angular momentum: 2

  ==> DFJKGrad: Density-Fitted SCF Gradients <==

    Gradient:                    1
    J tasked:                  Yes
    K tasked:                  Yes
    wK tasked:                  No
    OpenMP threads:              1
    Integrals threads:           1
    Memory [MiB]:              715
    Schwarz Cutoff:          1E-12
    Fitting Condition:       1E-10

   => Auxiliary Basis Set <=

  Basis Set: (CC-PVDZ AUX)
    Blend: CC-PVDZ-JKFIT
    Number of shells: 57
    Number of basis functions: 163
    Number of Cartesian functions: 187
    Spherical Harmonics?: true
    Max angular momentum: 3

  ==> DFT Potential <==

   => LibXC <=

    Version 7.0.0
    S. Lehtola, C. Steigemann, M. J.T. Oliveira, and M. A.L. Marques.,  SoftwareX 7, 1–5 (2018) (10.1016/j.softx.2017.11.002)

   => Composite Functional: B3LYP <= 

    B3LYP Hyb-GGA Exchange-Correlation Functional

    P. J. Stephens, F. J. Devlin, C. F. Chabalowski, and M. J. Frisch.,  J. Phys. Chem. 98, 11623 (1994) (10.1021/j100096a001)

    Deriv               =              1
    GGA                 =           TRUE
    Meta                =          FALSE

    Exchange Hybrid     =           TRUE
    MP2 Hybrid          =          FALSE

   => Exchange Functionals <=

    0.0800   Slater exchange
    0.7200         Becke 88

   => Exact (HF) Exchange <=

    0.2000               HF 

   => Correlation Functionals <=

    0.1900   Vosko, Wilk & Nusair (VWN5_RPA)
    0.8100   Lee, Yang & Parr

   => LibXC Density Thresholds  <==

    XC_HYB_GGA_XC_B3LYP:  1.00E-15 

   => Molecular Quadrature <=

    Radial Scheme          =       TREUTLER
    Pruning Scheme         =           NONE
    Nuclear Scheme         =       TREUTLER

    Blocking Scheme        =         OCTREE
    BS radius alpha        =              1
    Pruning alpha          =              1
    Radial Points          =             75
    Spherical Points       =            302
    Total Points           =           8693
    Total Blocks           =             99
    Max Points             =            241
    Max Functions          =             33
    Weights Tolerance      =       1.00E-15


  -Total Gradient:
     Atom            X                  Y                   Z
    ------   -----------------  -----------------  -----------------
       1        0.000000000000     0.003387752831     0.000000000000
       2        0.000000000000    -0.002499379211     0.000000000000
       3        0.000000000000    -0.000787778822     0.000000000000


*** tstop() called on wifi-roaming-128-4-180-132.wifi.udel.edu at Mon Dec  1 11:02:34 2025
Module time:
	user time   =       0.08 seconds =       0.00 minutes
	system time =       0.08 seconds =       0.00 minutes
	total time  =          0 seconds =       0.00 minutes
Total time:
	user time   =       1.84 seconds =       0.03 minutes
	system time =       1.80 seconds =       0.03 minutes
	total time  =          1 seconds =       0.02 minutes

    Psi4 stopped on: Monday, 01 December 2025 11:02AM
    Psi4 wall time for execution: 0:00:00.34


    -----------------------------------------------------------------------
          Psi4: An Open-Source Ab Initio Electronic Structure Package
                               Psi4 1.10 release

                         Git: Rev {} zzzzzzz 


    D. G. A. Smith, L. A. Burns, A. C. Simmonett, R. M. Parrish,
    M. C. Schieber, R. Galvelis, P. Kraus, H. Kruse, R. Di Remigio,
    A. Alenaizan, A. M. James, S. Lehtola, J. P. Misiewicz, M. Scheurer,
    R. A. Shaw, J. B. Schriber, Y. Xie, Z. L. Glick, D. A. Sirianni,
    J. S. O'Brien, J. M. Waldrop, A. Kumar, E. G. Hohenstein,
    B. P. Pritchard, B. R. Brooks, H. F. Schaefer III, A. Yu. Sokolov,
    K. Patkowski, A. E. DePrince III, U. Bozkaya, R. A. King,
    F. A. Evangelista, J. M. Turney, T. D. Crawford, C. D. Sherrill,
    J. Chem. Phys. 152(18) 184108 (2020). https://doi.org/10.1063/5.0006002

                            Additional Code Authors
    E. T. Seidl, C. L. Janssen, E. F. Valeev, M. L. Leininger,
    J. F. Gonthier, R. M. Richard, H. R. McAlexander, M. Saitow, X. Wang,
    P. Verma, M. H. Lechner, A. Jiang, S. Behnle, A. G. Heide,
    M. F. Herbst, D. L. Poole, T. Győri, E. C. Mitchell, J. P. Pederson,
    and A. M. Wallace

             Previous Authors, Complete List of Code Contributors,
                       and Citations for Specific Modules
    https://github.com/psi4/psi4/blob/master/codemeta.json
    https://github.com/psi4/psi4/graphs/contributors
    https://psicode.org/psi4manual/master/introduction.html#citing-psifour

    -----------------------------------------------------------------------


    Psi4 started on: Monday, 01 December 2025 11:02AM

    Process ID: 36257
    Host:       wifi-roaming-128-4-180-132.wifi.udel.edu
    PSIDATADIR: /Users/taoli/miniforge3/envs/mxl/share/psi4
    Memory:     953.7 MiB
    Threads:    1
    Addons:     a̶d̶c̶c̶, a̶m̶b̶i̶t̶, b̶s̶e̶, c̶c̶t̶3̶, c̶f̶o̶u̶r̶, c̶h̶e̶m̶p̶s̶2̶, c̶p̶p̶e̶, d̶d̶x̶,
                d̶f̶t̶d̶3̶, d̶f̶t̶d̶4̶, dkh, ecpint, einsums, f̶o̶r̶t̶e̶, g̶a̶u̶x̶c̶, g̶c̶p̶,
                g̶d̶m̶a̶, g̶e̶o̶m̶e̶t̶r̶i̶c̶, g̶p̶u̶_̶d̶f̶c̶c̶, i̶n̶t̶e̶g̶r̶a̶t̶o̶r̶x̶x̶,
                i̶p̶i̶, l̶i̶b̶e̶f̶p̶, m̶d̶i̶, m̶p̶2̶d̶, m̶r̶c̶c̶, ooo,
                o̶p̶e̶n̶f̶e̶r̶m̶i̶o̶n̶p̶s̶i̶4̶, pcmsolver, p̶s̶i̶4̶f̶o̶c̶k̶c̶i̶, p̶s̶i̶x̶a̶s̶,
                r̶e̶s̶p̶, s̶i̶m̶i̶n̶t̶, s̶n̶s̶m̶p̶2̶, v̶2̶r̶d̶m̶_̶c̶a̶s̶s̶c̶f̶

  ==> Input QCSchema <==

--------------------------------------------------------------------------
{'driver': 'gradient',
 'extras': {'psiapi': True, 'wfn_qcvars_only': True},
 'id': None,
 'keywords': {'DFT_GRID_NAME': 'SG1',
              'D_CONVERGENCE': 1e-12,
              'E_CONVERGENCE': 1e-12,
              'GUESS': 'SAD',
              'G_CONVERGENCE': 'GAU_VERYTIGHT',
              'PARENT_SYMMETRY': 'C2v(Y)',
              'PUREAM': 1,
              'REFERENCE': 'RKS',
              'function_kwargs': {'write_orbitals': False}},
 'model': {'basis': 'cc-pvdz', 'method': 'b3lyp'},
 'molecule': {'atom_labels': ['', '', ''],
              'atomic_numbers': [6, 7, 1],
              'extras': {},
              'fix_com': True,
              'fix_orientation': True,
              'fragment_charges': [0.0],
              'fragment_multiplicities': [1],
              'fragments': [[0, 1, 2]],
              'geometry': [0.0, -0.9454810085897837, 0.0, 0.0, 1.242315901407058, 0.0, 0.0, -2.9757655591088255, 0.0],
              'mass_numbers': [12, 14, 1],
              'masses': [12.0, 14.00307400443, 1.00782503223],
              'molecular_charge': 0.0,
              'molecular_multiplicity': 1,
              'name': 'CHN',
              'provenance': {'creator': 'QCElemental',
                             'routine': 'qcelemental.molparse.from_string',
                             'version': '0.29.0'},
              'real': [True, True, True],
              'schema_name': 'qcschema_molecule',
              'schema_version': 2,
              'symbols': ['C', 'N', 'H'],
              'validated': True},
 'protocols': {'stdout': True},
 'provenance': {'creator': 'QCElemental', 'routine': 'qcelemental.models.results', 'version': '0.29.0'},
 'schema_name': 'qcschema_input',
 'schema_version': 1}
--------------------------------------------------------------------------

Scratch directory: /tmp/
gradient() will perform analytic gradient computation.
   => Libint2 <=

    Primary   basis highest AM E, G, H:  6, 6, 3
    Auxiliary basis highest AM E, G, H:  7, 7, 4
    Onebody   basis highest AM E, G, H:  -, -, -
    Solid Harmonics ordering:            Gaussian

*** tstart() called on wifi-roaming-128-4-180-132.wifi.udel.edu
*** at Mon Dec  1 11:02:34 2025

   => Loading Basis Set <=

    Name: CC-PVDZ
    Role: ORBITAL
    Keyword: BASIS
    atoms 1 entry C          line   138 file /Users/taoli/miniforge3/envs/mxl/share/psi4/basis/cc-pvdz.gbs 
    atoms 2 entry N          line   168 file /Users/taoli/miniforge3/envs/mxl/share/psi4/basis/cc-pvdz.gbs 
    atoms 3 entry H          line    22 file /Users/taoli/miniforge3/envs/mxl/share/psi4/basis/cc-pvdz.gbs 


         ---------------------------------------------------------
                                   SCF
               by Justin Turney, Rob Parrish, Andy Simmonett
                          and Daniel G. A. Smith
                              RKS Reference
                        1 Threads,    953 MiB Core
         ---------------------------------------------------------

  ==> Geometry <==

    Molecular point group: c2v
    Full point group: C_inf_v

    Geometry (in Bohr), charge = 0, multiplicity = 1:

       Center              X                  Y                   Z               Mass       
    ------------   -----------------  -----------------  -----------------  -----------------
         C            0.000000000000    -0.945481008590     0.000000000000    12.000000000000
         N            0.000000000000     1.242315901407     0.000000000000    14.003074004430
         H            0.000000000000    -2.975765559109     0.000000000000     1.007825032230

  Running in c2v symmetry.

  Rotational constants: A = ************  B =      1.45892  C =      1.45892 [cm^-1]
  Rotational constants: A = ************  B =  43737.18701  C =  43737.18701 [MHz]
  Nuclear repulsion =   23.812167352906037

  Charge       = 0
  Multiplicity = 1
  Electrons    = 14
  Nalpha       = 7
  Nbeta        = 7

  ==> Algorithm <==

  SCF Algorithm Type is DF.
  DIIS enabled.
  MOM disabled.
  Fractional occupation disabled.
  Guess Type is SAD.
  Energy threshold   = 1.00e-12
  Density threshold  = 1.00e-12
  Integral threshold = 1.00e-12

  ==> Primary Basis <==

  Basis Set: CC-PVDZ
    Blend: CC-PVDZ
    Number of shells: 15
    Number of basis functions: 33
    Number of Cartesian functions: 35
    Spherical Harmonics?: true
    Max angular momentum: 2

  ==> DFT Potential <==

   => LibXC <=

    Version 7.0.0
    S. Lehtola, C. Steigemann, M. J.T. Oliveira, and M. A.L. Marques.,  SoftwareX 7, 1–5 (2018) (10.1016/j.softx.2017.11.002)

   => Composite Functional: B3LYP <= 

    B3LYP Hyb-GGA Exchange-Correlation Functional

    P. J. Stephens, F. J. Devlin, C. F. Chabalowski, and M. J. Frisch.,  J. Phys. Chem. 98, 11623 (1994) (10.1021/j100096a001)

    Deriv               =              1
    GGA                 =           TRUE
    Meta                =          FALSE

    Exchange Hybrid     =           TRUE
    MP2 Hybrid          =          FALSE

   => Exchange Functionals <=

    0.0800   Slater exchange
    0.7200         Becke 88

   => Exact (HF) Exchange <=

    0.2000               HF 

   => Correlation Functionals <=

    0.1900   Vosko, Wilk & Nusair (VWN5_RPA)
    0.8100   Lee, Yang & Parr

   => LibXC Density Thresholds  <==

    XC_HYB_GGA_XC_B3LYP:  1.00E-15 

   => Molecular Quadrature <=

    Radial Scheme          =       TREUTLER
    Pruning Scheme         =           NONE
    Nuclear Scheme         =       TREUTLER

    Blocking Scheme        =         OCTREE
    BS radius alpha        =              1
    Pruning alpha          =              1
    Radial Points          =             75
    Spherical Points       =            302
    Total Points           =           8692
    Total Blocks           =             99
    Max Points             =            241
    Max Functions          =             33
    Weights Tolerance      =       1.00E-15

   => Loading Basis Set <=

    Name: (CC-PVDZ AUX)
    Role: JKFIT
    Keyword: DF_BASIS_SCF
    atoms 1 entry C          line   121 file /Users/taoli/miniforge3/envs/mxl/share/psi4/basis/cc-pvdz-jkfit.gbs 
    atoms 2 entry N          line   171 file /Users/taoli/miniforge3/envs/mxl/share/psi4/basis/cc-pvdz-jkfit.gbs 
    atoms 3 entry H          line    51 file /Users/taoli/miniforge3/envs/mxl/share/psi4/basis/cc-pvdz-jkfit.gbs 

  ==> Integral Setup <==

  DFHelper Memory: AOs need 0.002 GiB; user supplied 0.690 GiB. 
  SCF_SUBTYPE=INCORE selected. In-core MEM_DF algorithm will be used.
  Using in-core AOs.

  ==> MemDFJK: Density-Fitted J/K Matrices <==

    J tasked:                   Yes
    K tasked:                   Yes
    wK tasked:                   No
    OpenMP threads:               1
    Memory [MiB]:               706
    Algorithm:                 Core
    Schwarz Cutoff:           1E-12
    Mask sparsity (%):       0.0000
    Fitting Condition:        1E-10

   => Auxiliary Basis Set <=

  Basis Set: (CC-PVDZ AUX)
    Blend: CC-PVDZ-JKFIT
    Number of shells: 57
    Number of basis functions: 163
    Number of Cartesian functions: 187
    Spherical Harmonics?: true
    Max angular momentum: 3

  Cached 100.0% of DFT collocation blocks in 0.008 [GiB].

  Minimum eigenvalue in the overlap matrix is 7.6619035645E-03.
  Reciprocal condition number of the overlap matrix is 2.1658710882E-03.
    Using symmetric orthogonalization.

  ==> Pre-Iterations <==

  SCF Guess: Superposition of Atomic Densities via on-the-fly atomic UHF (no occupation information).

   -------------------------
    Irrep   Nso     Nmo    
   -------------------------
     A1        17      17 
     A2         2       2 
     B1         7       7 
     B2         7       7 
   -------------------------
    Total      33      33
   -------------------------

  ==> Iterations <==

                           Total Energy        Delta E     RMS |[F,P]|

   @DF-RKS iter SAD:   -93.03447720039493   -9.30345e+01   0.00000e+00 
   @DF-RKS iter   1:   -93.12559567110745   -9.11185e-02   3.40344e-02 ADIIS/DIIS
   @DF-RKS iter   2:   -93.30159893611263   -1.76003e-01   2.37358e-02 ADIIS/DIIS
   @DF-RKS iter   3:   -93.42902873834201   -1.27430e-01   2.36935e-03 ADIIS/DIIS
   @DF-RKS iter   4:   -93.42937113098937   -3.42393e-04   2.10461e-03 ADIIS/DIIS
   @DF-RKS iter   5:   -93.43012596225860   -7.54831e-04   5.03720e-04 ADIIS/DIIS
   @DF-RKS iter   6:   -93.43016691512591   -4.09529e-05   2.81973e-05 DIIS
   @DF-RKS iter   7:   -93.43016706503215   -1.49906e-07   6.17361e-07 DIIS
   @DF-RKS iter   8:   -93.43016706512928   -9.71312e-11   1.29579e-07 DIIS
   @DF-RKS iter   9:   -93.43016706513333   -4.05009e-12   5.01927e-08 DIIS
   @DF-RKS iter  10:   -93.43016706513367   -3.41061e-13   8.98312e-10 DIIS
   @DF-RKS iter  11:   -93.43016706513374   -7.10543e-14   3.22509e-11 DIIS
   @DF-RKS iter  12:   -93.43016706513383   -8.52651e-14   2.18072e-12 DIIS
   @DF-RKS iter  13:   -93.43016706513379    4.26326e-14   3.40894e-14 DIIS
  Energy and wave function converged.


  ==> Post-Iterations <==

   Electrons on quadrature grid:
      Ntotal   =   14.0000238046 ; deviation = 2.380e-05 

    Orbital Energies [Eh]
    ---------------------

    Doubly Occupied:                                                      

       1A1   -14.357285     2A1   -10.246833     3A1    -0.923676  
       4A1    -0.606143     5A1    -0.383368     1B2    -0.361967  
       1B1    -0.361967  

    Virtual:                                                              

       2B2     0.015065     2B1     0.015065     6A1     0.057949  
       7A1     0.199082     3B2     0.459856     3B1     0.459856  
       8A1     0.542735     9A1     0.668460    10A1     0.739346  
       4B2     0.788397     4B1     0.788397    11A1     0.984807  
       5B1     1.081640     5B2     1.081640    12A1     1.097844  
       1A2     1.097848    13A1     1.441619     6B1     1.712885  
       6B2     1.712885     2A2     1.876073    14A1     1.876074  
      15A1     2.058274     7B1     2.553359     7B2     2.553359  
      16A1     2.796815    17A1     3.045609  

    Final Occupation by Irrep:
             A1    A2    B1    B2 
    DOCC [     5,    0,    1,    1 ]
    NA   [     5,    0,    1,    1 ]
    NB   [     5,    0,    1,    1 ]

  @DF-RKS Final Energy:   -93.43016706513379

   => Energetics <=

    Nuclear Repulsion Energy =             23.8121673529060374
    One-Electron Energy =                -172.6664214298269258
    Two-Electron Energy =                  65.6170508670768697
    DFT Exchange-Correlation Energy =     -10.1929638552897703
    Empirical Dispersion Energy =           0.0000000000000000
    VV10 Nonlocal Energy =                  0.0000000000000000
    Total Energy =                        -93.4301670651337872

Computation Completed


Properties will be evaluated at   0.000000,   0.000000,   0.000000 [a0]

Properties computed using the SCF density matrix


 Multipole Moments:

 ------------------------------------------------------------------------------------
     Multipole            Electronic (a.u.)      Nuclear  (a.u.)        Total (a.u.)
 ------------------------------------------------------------------------------------

 L = 1.  Multiply by 2.5417464519 to convert [e a0] to [Debye]
 Dipole X            :          0.0000000            0.0000000            0.0000000
 Dipole Y            :         -1.1461212            0.0475597           -1.0985615
 Dipole Z            :          0.0000000            0.0000000            0.0000000
 Magnitude           :                                                    1.0985615

 ------------------------------------------------------------------------------------

*** tstop() called on wifi-roaming-128-4-180-132.wifi.udel.edu at Mon Dec  1 11:02:34 2025
Module time:
	user time   =       0.42 seconds =       0.01 minutes
	system time =       0.39 seconds =       0.01 minutes
	total time  =          0 seconds =       0.00 minutes
Total time:
	user time   =       2.31 seconds =       0.04 minutes
	system time =       2.23 seconds =       0.04 minutes
	total time  =          1 seconds =       0.02 minutes

*** tstart() called on wifi-roaming-128-4-180-132.wifi.udel.edu
*** at Mon Dec  1 11:02:34 2025


         ------------------------------------------------------------
                                   SCF GRAD                          
                          Rob Parrish, Justin Turney,                
                       Andy Simmonett, and Alex Sokolov              
         ------------------------------------------------------------

  ==> Geometry <==

    Molecular point group: c2v
    Full point group: C_inf_v

    Geometry (in Bohr), charge = 0, multiplicity = 1:

       Center              X                  Y                   Z               Mass       
    ------------   -----------------  -----------------  -----------------  -----------------
         C            0.000000000000    -0.945481008590     0.000000000000    12.000000000000
         N            0.000000000000     1.242315901407     0.000000000000    14.003074004430
         H            0.000000000000    -2.975765559109     0.000000000000     1.007825032230

  Nuclear repulsion =   23.812167352906037

  ==> Basis Set <==

  Basis Set: CC-PVDZ
    Blend: CC-PVDZ
    Number of shells: 15
    Number of basis functions: 33
    Number of Cartesian functions: 35
    Spherical Harmonics?: true
    Max angular momentum: 2

  ==> DFJKGrad: Density-Fitted SCF Gradients <==

    Gradient:                    1
    J tasked:                  Yes
    K tasked:                  Yes
    wK tasked:                  No
    OpenMP threads:              1
    Integrals threads:           1
    Memory [MiB]:              715
    Schwarz Cutoff:          1E-12
    Fitting Condition:       1E-10

   => Auxiliary Basis Set <=

  Basis Set: (CC-PVDZ AUX)
    Blend: CC-PVDZ-JKFIT
    Number of shells: 57
    Number of basis functions: 163
    Number of Cartesian functions: 187
    Spherical Harmonics?: true
    Max angular momentum: 3

  ==> DFT Potential <==

   => LibXC <=

    Version 7.0.0
    S. Lehtola, C. Steigemann, M. J.T. Oliveira, and M. A.L. Marques.,  SoftwareX 7, 1–5 (2018) (10.1016/j.softx.2017.11.002)

   => Composite Functional: B3LYP <= 

    B3LYP Hyb-GGA Exchange-Correlation Functional

    P. J. Stephens, F. J. Devlin, C. F. Chabalowski, and M. J. Frisch.,  J. Phys. Chem. 98, 11623 (1994) (10.1021/j100096a001)

    Deriv               =              1
    GGA                 =           TRUE
    Meta                =          FALSE

    Exchange Hybrid     =           TRUE
    MP2 Hybrid          =          FALSE

   => Exchange Functionals <=

    0.0800   Slater exchange
    0.7200         Becke 88

   => Exact (HF) Exchange <=

    0.2000               HF 

   => Correlation Functionals <=

    0.1900   Vosko, Wilk & Nusair (VWN5_RPA)
    0.8100   Lee, Yang & Parr

   => LibXC Density Thresholds  <==

    XC_HYB_GGA_XC_B3LYP:  1.00E-15 

   => Molecular Quadrature <=

    Radial Scheme          =       TREUTLER
    Pruning Scheme         =           NONE
    Nuclear Scheme         =       TREUTLER

    Blocking Scheme        =         OCTREE
    BS radius alpha        =              1
    Pruning alpha          =              1
    Radial Points          =             75
    Spherical Points       =            302
    Total Points           =           8692
    Total Blocks           =             99
    Max Points             =            241
    Max Functions          =             33
    Weights Tolerance      =       1.00E-15


  -Total Gradient:
     Atom            X                  Y                   Z
    ------   -----------------  -----------------  -----------------
       1        0.000000000000    -0.001544402757     0.000000000000
       2        0.000000000000    -0.000336635293     0.000000000000
       3        0.000000000000     0.001980518136     0.000000000000


*** tstop() called on wifi-roaming-128-4-180-132.wifi.udel.edu at Mon Dec  1 11:02:34 2025
Module time:
	user time   =       0.08 seconds =       0.00 minutes
	system time =       0.08 seconds =       0.00 minutes
	total time  =          0 seconds =       0.00 minutes
Total time:
	user time   =       2.39 seconds =       0.04 minutes
	system time =       2.31 seconds =       0.04 minutes
	total time  =          1 seconds =       0.02 minutes

    Psi4 stopped on: Monday, 01 December 2025 11:02AM
    Psi4 wall time for execution: 0:00:00.34


    -----------------------------------------------------------------------
          Psi4: An Open-Source Ab Initio Electronic Structure Package
                               Psi4 1.10 release

                         Git: Rev {} zzzzzzz 


    D. G. A. Smith, L. A. Burns, A. C. Simmonett, R. M. Parrish,
    M. C. Schieber, R. Galvelis, P. Kraus, H. Kruse, R. Di Remigio,
    A. Alenaizan, A. M. James, S. Lehtola, J. P. Misiewicz, M. Scheurer,
    R. A. Shaw, J. B. Schriber, Y. Xie, Z. L. Glick, D. A. Sirianni,
    J. S. O'Brien, J. M. Waldrop, A. Kumar, E. G. Hohenstein,
    B. P. Pritchard, B. R. Brooks, H. F. Schaefer III, A. Yu. Sokolov,
    K. Patkowski, A. E. DePrince III, U. Bozkaya, R. A. King,
    F. A. Evangelista, J. M. Turney, T. D. Crawford, C. D. Sherrill,
    J. Chem. Phys. 152(18) 184108 (2020). https://doi.org/10.1063/5.0006002

                            Additional Code Authors
    E. T. Seidl, C. L. Janssen, E. F. Valeev, M. L. Leininger,
    J. F. Gonthier, R. M. Richard, H. R. McAlexander, M. Saitow, X. Wang,
    P. Verma, M. H. Lechner, A. Jiang, S. Behnle, A. G. Heide,
    M. F. Herbst, D. L. Poole, T. Győri, E. C. Mitchell, J. P. Pederson,
    and A. M. Wallace

             Previous Authors, Complete List of Code Contributors,
                       and Citations for Specific Modules
    https://github.com/psi4/psi4/blob/master/codemeta.json
    https://github.com/psi4/psi4/graphs/contributors
    https://psicode.org/psi4manual/master/introduction.html#citing-psifour

    -----------------------------------------------------------------------


    Psi4 started on: Monday, 01 December 2025 11:02AM

    Process ID: 36257
    Host:       wifi-roaming-128-4-180-132.wifi.udel.edu
    PSIDATADIR: /Users/taoli/miniforge3/envs/mxl/share/psi4
    Memory:     953.7 MiB
    Threads:    1
    Addons:     a̶d̶c̶c̶, a̶m̶b̶i̶t̶, b̶s̶e̶, c̶c̶t̶3̶, c̶f̶o̶u̶r̶, c̶h̶e̶m̶p̶s̶2̶, c̶p̶p̶e̶, d̶d̶x̶,
                d̶f̶t̶d̶3̶, d̶f̶t̶d̶4̶, dkh, ecpint, einsums, f̶o̶r̶t̶e̶, g̶a̶u̶x̶c̶, g̶c̶p̶,
                g̶d̶m̶a̶, g̶e̶o̶m̶e̶t̶r̶i̶c̶, g̶p̶u̶_̶d̶f̶c̶c̶, i̶n̶t̶e̶g̶r̶a̶t̶o̶r̶x̶x̶,
                i̶p̶i̶, l̶i̶b̶e̶f̶p̶, m̶d̶i̶, m̶p̶2̶d̶, m̶r̶c̶c̶, ooo,
                o̶p̶e̶n̶f̶e̶r̶m̶i̶o̶n̶p̶s̶i̶4̶, pcmsolver, p̶s̶i̶4̶f̶o̶c̶k̶c̶i̶, p̶s̶i̶x̶a̶s̶,
                r̶e̶s̶p̶, s̶i̶m̶i̶n̶t̶, s̶n̶s̶m̶p̶2̶, v̶2̶r̶d̶m̶_̶c̶a̶s̶s̶c̶f̶

  ==> Input QCSchema <==

--------------------------------------------------------------------------
{'driver': 'gradient',
 'extras': {'psiapi': True, 'wfn_qcvars_only': True},
 'id': None,
 'keywords': {'DFT_GRID_NAME': 'SG1',
              'D_CONVERGENCE': 1e-12,
              'E_CONVERGENCE': 1e-12,
              'GUESS': 'SAD',
              'G_CONVERGENCE': 'GAU_VERYTIGHT',
[...]
          Psi4: An Open-Source Ab Initio Electronic Structure Package
                               Psi4 1.10 release

                         Git: Rev {} zzzzzzz 


    D. G. A. Smith, L. A. Burns, A. C. Simmonett, R. M. Parrish,
    M. C. Schieber, R. Galvelis, P. Kraus, H. Kruse, R. Di Remigio,
    A. Alenaizan, A. M. James, S. Lehtola, J. P. Misiewicz, M. Scheurer,
    R. A. Shaw, J. B. Schriber, Y. Xie, Z. L. Glick, D. A. Sirianni,
    J. S. O'Brien, J. M. Waldrop, A. Kumar, E. G. Hohenstein,
    B. P. Pritchard, B. R. Brooks, H. F. Schaefer III, A. Yu. Sokolov,
    K. Patkowski, A. E. DePrince III, U. Bozkaya, R. A. King,
    F. A. Evangelista, J. M. Turney, T. D. Crawford, C. D. Sherrill,
    J. Chem. Phys. 152(18) 184108 (2020). https://doi.org/10.1063/5.0006002

                            Additional Code Authors
    E. T. Seidl, C. L. Janssen, E. F. Valeev, M. L. Leininger,
    J. F. Gonthier, R. M. Richard, H. R. McAlexander, M. Saitow, X. Wang,
    P. Verma, M. H. Lechner, A. Jiang, S. Behnle, A. G. Heide,
    M. F. Herbst, D. L. Poole, T. Győri, E. C. Mitchell, J. P. Pederson,
    and A. M. Wallace

             Previous Authors, Complete List of Code Contributors,
                       and Citations for Specific Modules
    https://github.com/psi4/psi4/blob/master/codemeta.json
    https://github.com/psi4/psi4/graphs/contributors
    https://psicode.org/psi4manual/master/introduction.html#citing-psifour

    -----------------------------------------------------------------------


    Psi4 started on: Monday, 01 December 2025 11:02AM

    Process ID: 36257
    Host:       wifi-roaming-128-4-180-132.wifi.udel.edu
    PSIDATADIR: /Users/taoli/miniforge3/envs/mxl/share/psi4
    Memory:     953.7 MiB
    Threads:    1
    Addons:     a̶d̶c̶c̶, a̶m̶b̶i̶t̶, b̶s̶e̶, c̶c̶t̶3̶, c̶f̶o̶u̶r̶, c̶h̶e̶m̶p̶s̶2̶, c̶p̶p̶e̶, d̶d̶x̶,
                d̶f̶t̶d̶3̶, d̶f̶t̶d̶4̶, dkh, ecpint, einsums, f̶o̶r̶t̶e̶, g̶a̶u̶x̶c̶, g̶c̶p̶,
                g̶d̶m̶a̶, g̶e̶o̶m̶e̶t̶r̶i̶c̶, g̶p̶u̶_̶d̶f̶c̶c̶, i̶n̶t̶e̶g̶r̶a̶t̶o̶r̶x̶x̶,
                i̶p̶i̶, l̶i̶b̶e̶f̶p̶, m̶d̶i̶, m̶p̶2̶d̶, m̶r̶c̶c̶, ooo,
                o̶p̶e̶n̶f̶e̶r̶m̶i̶o̶n̶p̶s̶i̶4̶, pcmsolver, p̶s̶i̶4̶f̶o̶c̶k̶c̶i̶, p̶s̶i̶x̶a̶s̶,
                r̶e̶s̶p̶, s̶i̶m̶i̶n̶t̶, s̶n̶s̶m̶p̶2̶, v̶2̶r̶d̶m̶_̶c̶a̶s̶s̶c̶f̶

  ==> Input QCSchema <==

--------------------------------------------------------------------------
{'driver': 'gradient',
 'extras': {'psiapi': True, 'wfn_qcvars_only': True},
 'id': None,
 'keywords': {'DFT_GRID_NAME': 'SG1',
              'D_CONVERGENCE': 1e-12,
              'E_CONVERGENCE': 1e-12,
              'GUESS': 'SAD',
              'G_CONVERGENCE': 'GAU_VERYTIGHT',
              'PARENT_SYMMETRY': 'C2v(Y)',
              'PUREAM': 1,
              'REFERENCE': 'RKS',
              'function_kwargs': {'write_orbitals': False}},
 'model': {'basis': 'cc-pvdz', 'method': 'b3lyp'},
 'molecule': {'atom_labels': ['', '', ''],
              'atomic_numbers': [6, 7, 1],
              'extras': {},
              'fix_com': True,
              'fix_orientation': True,
              'fragment_charges': [0.0],
              'fragment_multiplicities': [1],
              'fragments': [[0, 1, 2]],
              'geometry': [0.0, -0.9454810085897837, 0.0, 0.0, 1.2426621177231278, -0.00034621631606994896, 0.0,
                           -2.9805760098720313, 0.004810450763205726],
              'mass_numbers': [12, 14, 1],
              'masses': [12.0, 14.00307400443, 1.00782503223],
              'molecular_charge': 0.0,
              'molecular_multiplicity': 1,
              'name': 'CHN',
              'provenance': {'creator': 'QCElemental',
                             'routine': 'qcelemental.molparse.from_string',
                             'version': '0.29.0'},
              'real': [True, True, True],
              'schema_name': 'qcschema_molecule',
              'schema_version': 2,
              'symbols': ['C', 'N', 'H'],
              'validated': True},
 'protocols': {'stdout': True},
 'provenance': {'creator': 'QCElemental', 'routine': 'qcelemental.models.results', 'version': '0.29.0'},
 'schema_name': 'qcschema_input',
 'schema_version': 1}
--------------------------------------------------------------------------

Scratch directory: /tmp/
gradient() will perform analytic gradient computation.
   => Libint2 <=

    Primary   basis highest AM E, G, H:  6, 6, 3
    Auxiliary basis highest AM E, G, H:  7, 7, 4
    Onebody   basis highest AM E, G, H:  -, -, -
    Solid Harmonics ordering:            Gaussian

*** tstart() called on wifi-roaming-128-4-180-132.wifi.udel.edu
*** at Mon Dec  1 11:02:39 2025

   => Loading Basis Set <=

    Name: CC-PVDZ
    Role: ORBITAL
    Keyword: BASIS
    atoms 1 entry C          line   138 file /Users/taoli/miniforge3/envs/mxl/share/psi4/basis/cc-pvdz.gbs 
    atoms 2 entry N          line   168 file /Users/taoli/miniforge3/envs/mxl/share/psi4/basis/cc-pvdz.gbs 
    atoms 3 entry H          line    22 file /Users/taoli/miniforge3/envs/mxl/share/psi4/basis/cc-pvdz.gbs 


         ---------------------------------------------------------
                                   SCF
               by Justin Turney, Rob Parrish, Andy Simmonett
                          and Daniel G. A. Smith
                              RKS Reference
                        1 Threads,    953 MiB Core
         ---------------------------------------------------------

  ==> Geometry <==

    Molecular point group: cs
    Full point group: Cs

    Geometry (in Bohr), charge = 0, multiplicity = 1:

       Center              X                  Y                   Z               Mass       
    ------------   -----------------  -----------------  -----------------  -----------------
         C            0.000000000000    -0.945481008590     0.000000000000    12.000000000000
         N            0.000000000000     1.242662117723    -0.000346216316    14.003074004430
         H            0.000000000000    -2.980576009872     0.004810450763     1.007825032230

  Running in cs symmetry.

  Rotational constants: A = 4053675.41715  B =      1.45747  C =      1.45747 [cm^-1]
  Rotational constants: A = 121526131724.20067  B =  43693.84141  C =  43693.82570 [MHz]
  Nuclear repulsion =   23.800108376003443

  Charge       = 0
  Multiplicity = 1
  Electrons    = 14
  Nalpha       = 7
  Nbeta        = 7

  ==> Algorithm <==

  SCF Algorithm Type is DF.
  DIIS enabled.
  MOM disabled.
  Fractional occupation disabled.
  Guess Type is SAD.
  Energy threshold   = 1.00e-12
  Density threshold  = 1.00e-12
  Integral threshold = 1.00e-12

  ==> Primary Basis <==

  Basis Set: CC-PVDZ
    Blend: CC-PVDZ
    Number of shells: 15
    Number of basis functions: 33
    Number of Cartesian functions: 35
    Spherical Harmonics?: true
    Max angular momentum: 2

  ==> DFT Potential <==

   => LibXC <=

    Version 7.0.0
    S. Lehtola, C. Steigemann, M. J.T. Oliveira, and M. A.L. Marques.,  SoftwareX 7, 1–5 (2018) (10.1016/j.softx.2017.11.002)

   => Composite Functional: B3LYP <= 

    B3LYP Hyb-GGA Exchange-Correlation Functional

    P. J. Stephens, F. J. Devlin, C. F. Chabalowski, and M. J. Frisch.,  J. Phys. Chem. 98, 11623 (1994) (10.1021/j100096a001)

    Deriv               =              1
    GGA                 =           TRUE
    Meta                =          FALSE

    Exchange Hybrid     =           TRUE
    MP2 Hybrid          =          FALSE

   => Exchange Functionals <=

    0.0800   Slater exchange
    0.7200         Becke 88

   => Exact (HF) Exchange <=

    0.2000               HF 

   => Correlation Functionals <=

    0.1900   Vosko, Wilk & Nusair (VWN5_RPA)
    0.8100   Lee, Yang & Parr

   => LibXC Density Thresholds  <==

    XC_HYB_GGA_XC_B3LYP:  1.00E-15 

   => Molecular Quadrature <=

    Radial Scheme          =       TREUTLER
    Pruning Scheme         =           NONE
    Nuclear Scheme         =       TREUTLER

    Blocking Scheme        =         OCTREE
    BS radius alpha        =              1
    Pruning alpha          =              1
    Radial Points          =             75
    Spherical Points       =            302
    Total Points           =           8697
    Total Blocks           =            103
    Max Points             =            214
    Max Functions          =             33
    Weights Tolerance      =       1.00E-15

   => Loading Basis Set <=

    Name: (CC-PVDZ AUX)
    Role: JKFIT
    Keyword: DF_BASIS_SCF
    atoms 1 entry C          line   121 file /Users/taoli/miniforge3/envs/mxl/share/psi4/basis/cc-pvdz-jkfit.gbs 
    atoms 2 entry N          line   171 file /Users/taoli/miniforge3/envs/mxl/share/psi4/basis/cc-pvdz-jkfit.gbs 
    atoms 3 entry H          line    51 file /Users/taoli/miniforge3/envs/mxl/share/psi4/basis/cc-pvdz-jkfit.gbs 

  ==> Integral Setup <==

  DFHelper Memory: AOs need 0.002 GiB; user supplied 0.690 GiB. 
  SCF_SUBTYPE=INCORE selected. In-core MEM_DF algorithm will be used.
  Using in-core AOs.

  ==> MemDFJK: Density-Fitted J/K Matrices <==

    J tasked:                   Yes
    K tasked:                   Yes
    wK tasked:                   No
    OpenMP threads:               1
    Memory [MiB]:               706
    Algorithm:                 Core
    Schwarz Cutoff:           1E-12
    Mask sparsity (%):       0.0000
    Fitting Condition:        1E-10

   => Auxiliary Basis Set <=

  Basis Set: (CC-PVDZ AUX)
    Blend: CC-PVDZ-JKFIT
    Number of shells: 57
    Number of basis functions: 163
    Number of Cartesian functions: 187
    Spherical Harmonics?: true
    Max angular momentum: 3

  Cached 100.0% of DFT collocation blocks in 0.008 [GiB].

  Minimum eigenvalue in the overlap matrix is 7.6621802711E-03.
  Reciprocal condition number of the overlap matrix is 2.1674190999E-03.
    Using symmetric orthogonalization.

  ==> Pre-Iterations <==

  SCF Guess: Superposition of Atomic Densities via on-the-fly atomic UHF (no occupation information).

   -------------------------
    Irrep   Nso     Nmo    
   -------------------------
     A'        24      24 
     A"         9       9 
   -------------------------
    Total      33      33
   -------------------------

  ==> Iterations <==

                           Total Energy        Delta E     RMS |[F,P]|

   @DF-RKS iter SAD:   -93.03286273910510   -9.30329e+01   0.00000e+00 
   @DF-RKS iter   1:   -93.12465803148109   -9.17953e-02   2.62851e-02 ADIIS/DIIS
   @DF-RKS iter   2:   -93.30092162777869   -1.76264e-01   1.83493e-02 ADIIS/DIIS
   @DF-RKS iter   3:   -93.42940082366380   -1.28479e-01   1.50265e-03 ADIIS/DIIS
   @DF-RKS iter   4:   -93.42966657488707   -2.65751e-04   1.28630e-03 ADIIS/DIIS
   @DF-RKS iter   5:   -93.43011081597962   -4.44241e-04   4.70271e-04 ADIIS/DIIS
   @DF-RKS iter   6:   -93.43017159184730   -6.07759e-05   2.06486e-05 DIIS
   @DF-RKS iter   7:   -93.43017172802219   -1.36175e-07   4.83843e-07 DIIS
   @DF-RKS iter   8:   -93.43017172812350   -1.01309e-10   1.01475e-07 DIIS
   @DF-RKS iter   9:   -93.43017172812752   -4.02167e-12   3.78944e-08 DIIS
   @DF-RKS iter  10:   -93.43017172812809   -5.68434e-13   5.72976e-09 DIIS
   @DF-RKS iter  11:   -93.43017172812799    9.94760e-14   2.00567e-10 DIIS
   @DF-RKS iter  12:   -93.43017172812804   -5.68434e-14   9.99777e-12 DIIS
   @DF-RKS iter  13:   -93.43017172812806   -1.42109e-14   6.26344e-13 DIIS
  Energy and wave function converged.


  ==> Post-Iterations <==

   Electrons on quadrature grid:
      Ntotal   =   14.0000236812 ; deviation = 2.368e-05 

    Orbital Energies [Eh]
    ---------------------

    Doubly Occupied:                                                      

       1Ap   -14.357298     2Ap   -10.247026     3Ap    -0.923576  
       4Ap    -0.605443     5Ap    -0.383336     1App   -0.361886  
       6Ap    -0.361886  

    Virtual:                                                              

       7Ap     0.015059     2App    0.015060     8Ap     0.057224  
       9Ap     0.199167    10Ap     0.459876     3App    0.459876  
      11Ap     0.542281    12Ap     0.668481    13Ap     0.738785  
       4App    0.788419    14Ap     0.788420    15Ap     0.983283  
       5App    1.081300    16Ap     1.081310    17Ap     1.097920  
       6App    1.097924    18Ap     1.441845    19Ap     1.711235  
       7App    1.711237     8App    1.876048    20Ap     1.876049  
      21Ap     2.053744    22Ap     2.551940     9App    2.551941  
      23Ap     2.796586    24Ap     3.040685  

    Final Occupation by Irrep:
             Ap   App 
    DOCC [     6,    1 ]
    NA   [     6,    1 ]
    NB   [     6,    1 ]

  @DF-RKS Final Energy:   -93.43017172812806

   => Energetics <=

    Nuclear Repulsion Energy =             23.8001083760034433
    One-Electron Energy =                -172.6444963861114559
    Two-Electron Energy =                  65.6063040682770691
    DFT Exchange-Correlation Energy =     -10.1920877862971029
    Empirical Dispersion Energy =           0.0000000000000000
    VV10 Nonlocal Energy =                  0.0000000000000000
    Total Energy =                        -93.4301717281280588

Computation Completed


Properties will be evaluated at   0.000000,   0.000000,   0.000000 [a0]

Properties computed using the SCF density matrix


 Multipole Moments:

 ------------------------------------------------------------------------------------
     Multipole            Electronic (a.u.)      Nuclear  (a.u.)        Total (a.u.)
 ------------------------------------------------------------------------------------

 L = 1.  Multiply by 2.5417464519 to convert [e a0] to [Debye]
 Dipole X            :          0.0000000            0.0000000            0.0000000
 Dipole Y            :         -1.1449367            0.0451728           -1.0997639
 Dipole Z            :         -0.0011185            0.0023869            0.0012685
 Magnitude           :                                                    1.0997646

 ------------------------------------------------------------------------------------

*** tstop() called on wifi-roaming-128-4-180-132.wifi.udel.edu at Mon Dec  1 11:02:39 2025
Module time:
	user time   =       0.40 seconds =       0.01 minutes
	system time =       0.37 seconds =       0.01 minutes
	total time  =          0 seconds =       0.00 minutes
Total time:
	user time   =      10.02 seconds =       0.17 minutes
	system time =       9.15 seconds =       0.15 minutes
	total time  =          6 seconds =       0.10 minutes

*** tstart() called on wifi-roaming-128-4-180-132.wifi.udel.edu
*** at Mon Dec  1 11:02:39 2025


         ------------------------------------------------------------
                                   SCF GRAD                          
                          Rob Parrish, Justin Turney,                
                       Andy Simmonett, and Alex Sokolov              
         ------------------------------------------------------------

  ==> Geometry <==

    Molecular point group: cs
    Full point group: Cs

    Geometry (in Bohr), charge = 0, multiplicity = 1:

       Center              X                  Y                   Z               Mass       
    ------------   -----------------  -----------------  -----------------  -----------------
         C            0.000000000000    -0.945481008590     0.000000000000    12.000000000000
         N            0.000000000000     1.242662117723    -0.000346216316    14.003074004430
         H            0.000000000000    -2.980576009872     0.004810450763     1.007825032230

  Nuclear repulsion =   23.800108376003443

  ==> Basis Set <==

  Basis Set: CC-PVDZ
    Blend: CC-PVDZ
    Number of shells: 15
    Number of basis functions: 33
    Number of Cartesian functions: 35
    Spherical Harmonics?: true
    Max angular momentum: 2

  ==> DFJKGrad: Density-Fitted SCF Gradients <==

    Gradient:                    1
    J tasked:                  Yes
    K tasked:                  Yes
    wK tasked:                  No
    OpenMP threads:              1
    Integrals threads:           1
    Memory [MiB]:              715
    Schwarz Cutoff:          1E-12
    Fitting Condition:       1E-10

   => Auxiliary Basis Set <=

  Basis Set: (CC-PVDZ AUX)
    Blend: CC-PVDZ-JKFIT
    Number of shells: 57
    Number of basis functions: 163
    Number of Cartesian functions: 187
    Spherical Harmonics?: true
    Max angular momentum: 3

  ==> DFT Potential <==

   => LibXC <=

    Version 7.0.0
    S. Lehtola, C. Steigemann, M. J.T. Oliveira, and M. A.L. Marques.,  SoftwareX 7, 1–5 (2018) (10.1016/j.softx.2017.11.002)

   => Composite Functional: B3LYP <= 

    B3LYP Hyb-GGA Exchange-Correlation Functional

    P. J. Stephens, F. J. Devlin, C. F. Chabalowski, and M. J. Frisch.,  J. Phys. Chem. 98, 11623 (1994) (10.1021/j100096a001)

    Deriv               =              1
    GGA                 =           TRUE
    Meta                =          FALSE

    Exchange Hybrid     =           TRUE
    MP2 Hybrid          =          FALSE

   => Exchange Functionals <=

    0.0800   Slater exchange
    0.7200         Becke 88

   => Exact (HF) Exchange <=

    0.2000               HF 

   => Correlation Functionals <=

    0.1900   Vosko, Wilk & Nusair (VWN5_RPA)
    0.8100   Lee, Yang & Parr

   => LibXC Density Thresholds  <==

    XC_HYB_GGA_XC_B3LYP:  1.00E-15 

   => Molecular Quadrature <=

    Radial Scheme          =       TREUTLER
    Pruning Scheme         =           NONE
    Nuclear Scheme         =       TREUTLER

    Blocking Scheme        =         OCTREE
    BS radius alpha        =              1
    Pruning alpha          =              1
    Radial Points          =             75
    Spherical Points       =            302
    Total Points           =           8697
    Total Blocks           =            103
    Max Points             =            214
    Max Functions          =             33
    Weights Tolerance      =       1.00E-15


  -Total Gradient:
     Atom            X                  Y                   Z
    ------   -----------------  -----------------  -----------------
       1        0.000000000000     0.000042206176    -0.000143197937
       2        0.000000000000     0.000035579641     0.000068797038
       3        0.000000000000     0.000021707625     0.000074237439


*** tstop() called on wifi-roaming-128-4-180-132.wifi.udel.edu at Mon Dec  1 11:02:39 2025
Module time:
	user time   =       0.07 seconds =       0.00 minutes
	system time =       0.08 seconds =       0.00 minutes
	total time  =          0 seconds =       0.00 minutes
Total time:
	user time   =      10.10 seconds =       0.17 minutes
	system time =       9.23 seconds =       0.15 minutes
	total time  =          6 seconds =       0.10 minutes

    Psi4 stopped on: Monday, 01 December 2025 11:02AM
    Psi4 wall time for execution: 0:00:00.33


  //>>>>>>>>>>>>>>>>>>>>>>>>>>>>>>>>>>>//
  //      FiniteDifference Results     //
  //<<<<<<<<<<<<<<<<<<<<<<<<<<<<<<<<<<<//

  Computing second-derivative from gradients using projected, 
  symmetry-adapted, cartesian coordinates.

  9 gradients passed in, including the reference geometry.
  Generating complete list of displacements from unique ones.

    Operation 2 takes plus displacements of irrep B1 to minus ones.
    Operation 2 takes plus displacements of irrep B2 to minus ones.

-------------------------------------------------------------
dipole derivatives (a.u.):
[[ 0.03197467  0.          0.        ]
 [ 0.         -0.2467948   0.        ]
 [ 0.          0.          0.03197467]
 [-0.27581579  0.          0.        ]
 [ 0.         -0.00296554  0.        ]
 [ 0.          0.         -0.27581579]
 [ 0.24384112  0.          0.        ]
 [ 0.          0.24976034  0.        ]
 [ 0.          0.          0.24384112]]
dmux/dx: [ 0.03197467 -0.27581579  0.24384112]
dmuy/dy: [-0.2467948  -0.00296554  0.24976034]
dmuz/dz: [ 0.03197467 -0.27581579  0.24384112]
